      -----------------------------------------------------------      
     |                   =====================                   |     
     |                           x T B                           |     
     |                   =====================                   |     
     |                         S. Grimme                         |     
     |          Mulliken Center for Theoretical Chemistry        |     
     |                    University of Bonn                     |     
     |                  Version 6.1 (SAW190416)                  |     
      -----------------------------------------------------------      

   This program is distributed in the hope that it will be useful,
   but WITHOUT ANY WARRANTY; without even the implied warranty of
   MERCHANTABILITY or FITNESS FOR A PARTICULAR PURPOSE.
   
   FOR NON-COMMERCIAL, ACADEMIA USE ONLY.
   
   Cite this work as:
   S. Grimme, C. Bannwarth, P. Shushkov, J. Comput. Theory Chem., 2017,
   13, 1989-2009. DOI: 10.1021/acs.jctc.7b00118
   C. Bannwarth, S. Ehlert and S. Grimme., J. Comput. Theory Chem., 2019,
   just accepted. DOI: 10.1021/acs.jctc.8b01176
   
   for sTDA-xTB:
   S. Grimme and C. Bannwarth, J. Chem. Phys., 2016, 145, 054103.
   DOI: 10.1063/1.4959605
   
   in the mass-spec context:
   V. Asgeirsson, C. Bauer and S. Grimme, Chem. Sci., 2017, 8, 4879.
   DOI: 10.1039/c7sc00601b
   
   for metadynamics refer to:
   S. Grimme, J. Chem. Theory Comput. Article ASAP, 2019,
   DOI: 10.1021/acs.jctc.9b00143
   
   with help from (in alphabetical order)
   C. Bannwarth, F. Bohle, G. Brandenburg, E. Caldeweyher, M. Checinski,
   S. Dohm, S. Ehlert, S. Ehrlich, F. März, H. Neugebauer, J. Pisarek,
   P. Pracht, P. Shushkov, and S. Spicher.
   
 * started run on 2022/07/07 at 15:07:18.446     

           -------------------------------------------------
          |                Calculation Setup                |
           -------------------------------------------------

          program call               : /depot/bsavoie/apps/xTB/bin/xtb /home/lin1209/test_ligand/NH3_2C_Angew-1+H_minimized.xyz --opt --chrg 1
          hostname                   : bell-a011
          coordinate file            : /home/lin1209/test_ligand/NH3_2C_Angew-1+H_minimized.xyz
          omp threads                :                     1
          number of atoms            :                    21
          number of electrons        :                    48
          charge                     :                     1
          spin                       :                   0.0
          first test random number   :      0.90380801671356


########################################################################
# WARNING! Please study the warnings concerning your input carefully
#  - XTBHOME is not set, using HOME instead
#  - XTBPATH is not set, using XTBHOME instead
########################################################################

           ------------------------------------------------- 
          |                 G F N 2 - x T B                 |
          | Geometry, Frequencies, Noncovalent interactions |
          |            JCTC 2018 parametrisation            |
           ------------------------------------------------- 
             k(s)              :                1.8500
             k(p)              :                2.2300
             k(d)              :                2.2300
             k(f)              :                2.0000
             kEN (H0ij)        :               -2.0000
             D4 a1             :                0.5200
             D4 a2             :                5.0000
             D4 s6             :                1.0000
             D4 s8             :                2.7000
             D4 s9             :                5.0000
             alphaj            :                2.0000

  Z AO/shell   Hii/eV     exponent
  1     Wed Apr 25 08:07:45 CEST 2018   EN: 2.200 GM2: 0.406  GM3: 0.0800  RAES: 1.40
     1s    -10.707211    1.230000
  6     Wed Apr 25 08:07:45 CEST 2018   EN: 2.550 GM2: 0.538  GM3: 0.1500  RAES: 3.00
     2s    -13.970922    2.096432
     2p    -10.063292    1.800000
  7     Wed Apr 25 08:07:45 CEST 2018   EN: 3.040 GM2: 0.461  GM3:-0.0640  RAES: 1.90
     2s    -16.686243    2.339881
     2p    -12.523956    2.014332


            Z     q(EN)     CN     RAES       Cart. coordinates
     1  N   5.0   -0.70    3.98    2.81     1.43317    -7.20080     1.10568
     2  C   4.0   -0.05    3.02    3.02     0.00000     5.27177     0.00000
     3  H   1.0    0.27    0.99    1.43     0.00000    -7.99486     0.00000
     4  H   1.0    0.28    0.99    1.43     1.83549    -8.42251     2.60555
     5  H   1.0    0.27    0.99    1.43     3.06514    -6.96704     0.01512
     6  C   4.0   -0.03    3.97    3.57     0.61152    -4.76494     2.11952
     7  H   1.0    0.14    0.99    1.43    -1.10190    -5.03404     3.30532
     8  H   1.0    0.14    0.99    1.43     2.13010    -3.95028     3.32138
     9  C   4.0   -0.11    3.97    3.58     0.00000    -2.91018     0.00000
    10  H   1.0    0.14    0.99    1.43    -1.55562    -3.64812    -1.20016
    11  H   1.0    0.13    1.00    1.43     1.69660    -2.55756    -1.18410
    12  C   4.0   -0.07    3.02    3.02     2.28279     1.31789     0.00000
    13  C   4.0   -0.05    3.02    3.02     2.28279     3.95368     0.00000
    14  C   4.0   -0.03    3.03    3.02     0.00000     0.00000     0.00000
    15  C   4.0   -0.06    3.02    3.02    -2.28279     1.31789     0.00000
    16  C   4.0   -0.05    3.02    3.02    -2.28279     3.95368     0.00000
    17  H   1.0    0.14    0.99    1.43     4.06121     0.29102     0.00000
    18  H   1.0    0.16    0.99    1.43     4.06121     4.98056     0.00000
    19  H   1.0    0.15    0.99    1.43    -4.06121     0.29102     0.00000
    20  H   1.0    0.16    0.99    1.43     0.00000     7.33157     0.00000
    21  H   1.0    0.16    0.99    1.43    -4.06121     4.98056     0.00000

           ------------------------------------------------- 
          |        Self-Consistent Charge Iterations        |
           ------------------------------------------------- 

          ...................................................
          :                      SETUP                      :
          :.................................................:
          :  # basis functions                  48          :
          :  # atomic orbitals                  48          :
          :  # shells                           30          :
          :  # electrons                        48          :
          :  max. iterations                   250          :
          :  Hamiltonian                  GFN2-xTB          :
          :  restarted?                      false          :
          :  GBSA solvation                  false          :
          :  PC potential                    false          :
          :  electronic temp.          300.0000000     K    :
          :  accuracy                    1.0000000          :
          :  -> integral cutoff          0.2500000E+02      :
          :  -> integral neglect         0.1000000E-07      :
          :  -> SCF convergence          0.1000000E-05 Eh   :
          :  -> wf. convergence          0.1000000E-03 e    :
          :  Broyden damping             0.4000000          :
          ...................................................

 iter      E             dE          RMSdq      gap      omega  full diag
   1    -25.9833785 -0.259834E+02  0.452E+00    4.47       0.0  T
   2    -26.0955383 -0.112160E+00  0.261E+00    4.63       1.0  T
   3    -26.0977174 -0.217908E-02  0.130E+00    4.65       1.0  T
   4    -26.0953006  0.241676E-02  0.500E-01    4.60       1.0  T
   5    -26.0995020 -0.420137E-02  0.110E-01    4.63       1.0  T
   6    -26.0995071 -0.514786E-05  0.405E-02    4.63       1.0  T
   7    -26.0995173 -0.101411E-04  0.106E-02    4.63       2.1  T
   8    -26.0995180 -0.788161E-06  0.475E-03    4.63       4.6  T
   9    -26.0995182 -0.150944E-06  0.187E-03    4.63      11.7  T
  10    -26.0995182 -0.595747E-08  0.793E-04    4.63      27.5  T
  11    -26.0995182 -0.839174E-08  0.293E-04    4.63      74.5  T

   *** convergence criteria satisfied after 11 iterations ***

         #    Occupation            Energy/Eh            Energy/eV
      -------------------------------------------------------------
         1        2.0000           -0.8958200             -24.3765
       ...           ...                  ...                  ...
        18        2.0000           -0.5828656             -15.8606
        19        2.0000           -0.5791973             -15.7608
        20        2.0000           -0.5654659             -15.3871
        21        2.0000           -0.5299272             -14.4201
        22        2.0000           -0.5252802             -14.2936
        23        2.0000           -0.5069713             -13.7954
        24        2.0000           -0.5033568             -13.6970 (HOMO)
        25                         -0.3330558              -9.0629 (LUMO)
        26                         -0.3294979              -8.9661
        27                         -0.2684990              -7.3062
        28                         -0.2087516              -5.6804
        29                         -0.1698013              -4.6205
       ...                                ...                  ...
        48                          0.5290890              14.3972
      -------------------------------------------------------------
                  HL-Gap            0.1703009 Eh            4.6341 eV
             Fermi-level           -0.4182063 Eh          -11.3800 eV

 SCC (total)                   0 d,  0 h,  0 min,  0.079 sec
 SCC setup                      ...        0 min,  0.000 sec (  0.287%)
 Dispersion                     ...        0 min,  0.000 sec (  0.185%)
 integral evaluation            ...        0 min,  0.002 sec (  3.010%)
 zeroth order Hamiltonian       ...        0 min,  0.000 sec (  0.545%)
 iterations                     ...        0 min,  0.070 sec ( 87.631%)
 molecular gradient             ...        0 min,  0.005 sec (  6.481%)
 printout                       ...        0 min,  0.001 sec (  1.818%)

         :::::::::::::::::::::::::::::::::::::::::::::::::::::
         ::                     SUMMARY                     ::
         :::::::::::::::::::::::::::::::::::::::::::::::::::::
         :: total energy              -25.682424877637 Eh   ::
         :: gradient norm               0.081910214599 Eh/α ::
         :: HOMO-LUMO gap               4.634124474151 eV   ::
         ::.................................................::
         :: SCC energy                -26.099518209544 Eh   ::
         :: -> isotropic ES             0.108675298026 Eh   ::
         :: -> anisotropic ES          -0.011265990360 Eh   ::
         :: -> anisotropic XC           0.020513737413 Eh   ::
         :: -> dispersion              -0.014058270463 Eh   ::
         :: repulsion energy            0.417100158785 Eh   ::
         :: add. restraining            0.000000000000 Eh   ::
         :::::::::::::::::::::::::::::::::::::::::::::::::::::

      ----------------------------------------------------------- 
     |                   =====================                   |
     |                        A N C O P T                        |
     |                   =====================                   |
     |               Approximate Normal Coordinate               |
     |                Rational Function Optimizer                |
      ----------------------------------------------------------- 

          ...................................................
          :                      SETUP                      :
          :.................................................:
          :   optimization level            normal          :
          :   max. optcycles                   200          :
          :   ANC micro-cycles                  20          :
          :   degrees of freedom                57          :
          :.................................................:
          :   RF solver                   davidson          :
          :   input Hessian                  false          :
          :   write xtbopt.log                true          :
          :   linear?                        false          :
          :   energy convergence         0.5000000E-05 Eh   :
          :   grad. convergence          0.1000000E-02 Eh/α :
          :   maximium RF displ.         1.0000000          :
          :   Hlow (freq-cutoff)         0.1000000E-01      :
          :   Hmax (freq-cutoff)         5.0000000          :
          :   S6 in model hess.         20.0000000          :
          ...................................................

generating ANC from model Hessian ...
Using Lindh-Hessian (1995)
 Shifting diagonal of input Hessian by   8.136216647671913E-003
 Lowest  eigenvalues of input Hessian
   -0.000000   -0.000000    0.000000    0.000000    0.000000    0.000000
    0.010000    0.010356    0.010772    0.017426    0.021097    0.021665
    0.022263    0.025579    0.029329    0.032579    0.049579    0.052423
 Highest eigenvalues
    1.448473    1.535586    1.558909    1.844431    1.937729    1.946683
 

........................................................................
.............................. CYCLE    1 ..............................
........................................................................
   1    -26.0995182 -0.260995E+02  0.749E-05    4.63       0.0  T
   2    -26.0995182 -0.207727E-10  0.464E-05    4.63     470.6  T
   3    -26.0995182 -0.134790E-10  0.299E-05    4.63     729.3  T
     SCC iter.                  ...        0 min,  0.002 sec
     gradient                   ...        0 min,  0.005 sec
 * total energy  :   -25.6824249 Eh     change       -0.1124879E-07 Eh
   gradient norm :     0.0818099 Eh/α   predicted     0.0000000E+00 (-100.00%)
   displ. norm   :     0.5035666 α      lambda       -0.2742699E-01
   maximum displ.:     0.2484298 α      in ANC's #18, #8, #6, ...

........................................................................
.............................. CYCLE    2 ..............................
........................................................................
   1    -26.1385445 -0.261385E+02  0.461E-01    4.73       0.0  T
   2    -26.1389236 -0.379167E-03  0.251E-01    4.73       1.0  T
   3    -26.1389187  0.495364E-05  0.937E-02    4.73       1.0  T
   4    -26.1389430 -0.243276E-04  0.237E-02    4.73       1.0  T
   5    -26.1389509 -0.786298E-05  0.792E-03    4.73       2.8  T
   6    -26.1389512 -0.317122E-06  0.243E-03    4.73       9.0  T
   7    -26.1389512 -0.101338E-07  0.802E-04    4.73      27.2  T
     SCC iter.                  ...        0 min,  0.003 sec
     gradient                   ...        0 min,  0.005 sec
 * total energy  :   -25.7021544 Eh     change       -0.1972956E-01 Eh
   gradient norm :     0.0657981 Eh/α   predicted    -0.1719097E-01 ( -12.87%)
   displ. norm   :     0.6193185 α      lambda       -0.2563588E-01
   maximum displ.:     0.3740331 α      in ANC's #18, #6, #22, ...

........................................................................
.............................. CYCLE    3 ..............................
........................................................................
   1    -26.1655760 -0.261656E+02  0.582E-01    4.77       0.0  T
   2    -26.1658222 -0.246230E-03  0.338E-01    4.77       1.0  T
   3    -26.1657856  0.366412E-04  0.888E-02    4.78       1.0  T
   4    -26.1658354 -0.498150E-04  0.242E-02    4.77       1.0  T
   5    -26.1658429 -0.750433E-05  0.634E-03    4.77       3.4  T
   6    -26.1658430 -0.116507E-06  0.265E-03    4.77       8.2  T
   7    -26.1658430 -0.596950E-08  0.764E-04    4.77      28.5  T
     SCC iter.                  ...        0 min,  0.004 sec
     gradient                   ...        0 min,  0.005 sec
 * total energy  :   -25.7097152 Eh     change       -0.7560781E-02 Eh
   gradient norm :     0.0429097 Eh/α   predicted    -0.1773434E-01 ( 134.56%)
   displ. norm   :     0.2711842 α      lambda       -0.6235338E-02
   maximum displ.:     0.1364231 α      in ANC's #1, #18, #4, ...

........................................................................
.............................. CYCLE    4 ..............................
........................................................................
   1    -26.1630283 -0.261630E+02  0.202E-01    4.77       0.0  T
   2    -26.1630661 -0.378640E-04  0.116E-01    4.77       1.0  T
   3    -26.1630551  0.109956E-04  0.379E-02    4.77       1.0  T
   4    -26.1630694 -0.143074E-04  0.104E-02    4.77       2.1  T
   5    -26.1630713 -0.186534E-05  0.289E-03    4.77       7.6  T
   6    -26.1630713 -0.243802E-07  0.104E-03    4.77      21.0  T
     SCC iter.                  ...        0 min,  0.003 sec
     gradient                   ...        0 min,  0.005 sec
 * total energy  :   -25.7137794 Eh     change       -0.4064170E-02 Eh
   gradient norm :     0.0158926 Eh/α   predicted    -0.3346944E-02 ( -17.65%)
   displ. norm   :     0.3758120 α      lambda       -0.2184559E-02
   maximum displ.:     0.2490417 α      in ANC's #1, #2, #4, ...

........................................................................
.............................. CYCLE    5 ..............................
........................................................................
   1    -26.1617667 -0.261618E+02  0.198E-01    4.75       0.0  T
   2    -26.1617816 -0.149043E-04  0.116E-01    4.75       1.0  T
   3    -26.1617683  0.132992E-04  0.286E-02    4.75       1.0  T
   4    -26.1617850 -0.166878E-04  0.613E-03    4.75       3.6  T
   5    -26.1617855 -0.520438E-06  0.231E-03    4.75       9.5  T
   6    -26.1617855 -0.115715E-07  0.761E-04    4.75      28.7  T
     SCC iter.                  ...        0 min,  0.003 sec
     gradient                   ...        0 min,  0.005 sec
 * total energy  :   -25.7153428 Eh     change       -0.1563446E-02 Eh
   gradient norm :     0.0072119 Eh/α   predicted    -0.1246548E-02 ( -20.27%)
   displ. norm   :     0.3900592 α      lambda       -0.1211343E-02
   maximum displ.:     0.2713322 α      in ANC's #1, #2, #4, ...

........................................................................
.............................. CYCLE    6 ..............................
........................................................................
   1    -26.1626708 -0.261627E+02  0.203E-01    4.75       0.0  T
   2    -26.1626766 -0.580696E-05  0.119E-01    4.75       1.0  T
   3    -26.1626718  0.481830E-05  0.170E-02    4.75       1.3  T
   4    -26.1626782 -0.640986E-05  0.401E-03    4.75       5.4  T
   5    -26.1626784 -0.182459E-06  0.179E-03    4.75      12.2  T
   6    -26.1626784 -0.781365E-08  0.461E-04    4.75      47.4  T
     SCC iter.                  ...        0 min,  0.003 sec
     gradient                   ...        0 min,  0.005 sec
 * total energy  :   -25.7162509 Eh     change       -0.9080740E-03 Eh
   gradient norm :     0.0091552 Eh/α   predicted    -0.6978257E-03 ( -23.15%)
   displ. norm   :     0.3512150 α      lambda       -0.7839495E-03
   maximum displ.:     0.2506261 α      in ANC's #1, #2, #3, ...

........................................................................
.............................. CYCLE    7 ..............................
........................................................................
   1    -26.1642893 -0.261643E+02  0.177E-01    4.76       0.0  T
   2    -26.1642922 -0.292395E-05  0.104E-01    4.76       1.0  T
   3    -26.1642914  0.781592E-06  0.910E-03    4.76       2.4  T
   4    -26.1642929 -0.148975E-05  0.291E-03    4.76       7.5  T
   5    -26.1642930 -0.856540E-07  0.138E-03    4.76      15.8  T
     SCC iter.                  ...        0 min,  0.002 sec
     gradient                   ...        0 min,  0.005 sec
 * total energy  :   -25.7168701 Eh     change       -0.6191786E-03 Eh
   gradient norm :     0.0085215 Eh/α   predicted    -0.4403279E-03 ( -28.89%)
   displ. norm   :     0.3690829 α      lambda       -0.6739477E-03
   maximum displ.:     0.2655662 α      in ANC's #1, #2, #3, ...

........................................................................
.............................. CYCLE    8 ..............................
........................................................................
   1    -26.1664432 -0.261664E+02  0.184E-01    4.77       0.0  T
   2    -26.1664455 -0.228397E-05  0.108E-01    4.77       1.0  T
   3    -26.1664458 -0.299939E-06  0.507E-03    4.77       4.3  T
   4    -26.1664460 -0.262491E-06  0.233E-03    4.77       9.4  T
   5    -26.1664461 -0.344873E-07  0.118E-03    4.77      18.5  T
     SCC iter.                  ...        0 min,  0.003 sec
     gradient                   ...        0 min,  0.005 sec
 * total energy  :   -25.7174018 Eh     change       -0.5317278E-03 Eh
   gradient norm :     0.0058972 Eh/α   predicted    -0.3828824E-03 ( -27.99%)
   displ. norm   :     0.3991648 α      lambda       -0.5306804E-03
   maximum displ.:     0.2781991 α      in ANC's #1, #2, #3, ...

........................................................................
.............................. CYCLE    9 ..............................
........................................................................
   1    -26.1662250 -0.261662E+02  0.201E-01    4.78       0.0  T
   2    -26.1662272 -0.215646E-05  0.118E-01    4.78       1.0  T
   3    -26.1662273 -0.119920E-06  0.601E-03    4.78       3.6  T
   4    -26.1662278 -0.524511E-06  0.259E-03    4.78       8.4  T
   5    -26.1662279 -0.579047E-07  0.118E-03    4.78      18.6  T
     SCC iter.                  ...        0 min,  0.002 sec
     gradient                   ...        0 min,  0.005 sec
 * total energy  :   -25.7177840 Eh     change       -0.3822040E-03 Eh
   gradient norm :     0.0046643 Eh/α   predicted    -0.3076184E-03 ( -19.51%)
   displ. norm   :     0.3159097 α      lambda       -0.2706592E-03
   maximum displ.:     0.2140672 α      in ANC's #1, #2, #3, ...

........................................................................
.............................. CYCLE   10 ..............................
........................................................................
   1    -26.1678862 -0.261679E+02  0.158E-01    4.78       0.0  T
   2    -26.1678873 -0.109566E-05  0.926E-02    4.78       1.0  T
   3    -26.1678869  0.411947E-06  0.620E-03    4.78       3.5  T
   4    -26.1678877 -0.866875E-06  0.182E-03    4.78      12.0  T
   5    -26.1678878 -0.164785E-07  0.779E-04    4.78      28.0  T
     SCC iter.                  ...        0 min,  0.003 sec
     gradient                   ...        0 min,  0.005 sec
 * total energy  :   -25.7179528 Eh     change       -0.1688011E-03 Eh
   gradient norm :     0.0037702 Eh/α   predicted    -0.1488358E-03 ( -11.83%)
   displ. norm   :     0.1659904 α      lambda       -0.8532876E-04
   maximum displ.:     0.1224817 α      in ANC's #2, #1, #3, ...

........................................................................
.............................. CYCLE   11 ..............................
........................................................................
   1    -26.1682560 -0.261683E+02  0.833E-02    4.78       0.0  T
   2    -26.1682565 -0.476897E-06  0.489E-02    4.78       1.0  T
   3    -26.1682557  0.758644E-06  0.641E-03    4.78       3.4  T
   4    -26.1682567 -0.995304E-06  0.118E-03    4.78      18.4  T
   5    -26.1682567 -0.284155E-08  0.555E-04    4.78      39.3  T
   6    -26.1682567 -0.122818E-08  0.159E-04    4.78     137.5  T
     SCC iter.                  ...        0 min,  0.003 sec
     gradient                   ...        0 min,  0.005 sec
 * total energy  :   -25.7180078 Eh     change       -0.5496306E-04 Eh
   gradient norm :     0.0017519 Eh/α   predicted    -0.4384100E-04 ( -20.24%)
   displ. norm   :     0.1267122 α      lambda       -0.3877329E-04
   maximum displ.:     0.1065897 α      in ANC's #2, #1, #5, ...

........................................................................
.............................. CYCLE   12 ..............................
........................................................................
   1    -26.1701180 -0.261701E+02  0.551E-02    4.78       0.0  T
   2    -26.1701184 -0.452926E-06  0.323E-02    4.77       1.0  T
   3    -26.1701172  0.120608E-05  0.770E-03    4.78       2.8  T
   4    -26.1701187 -0.146390E-05  0.983E-04    4.78      22.2  T
   5    -26.1701187 -0.192871E-08  0.483E-04    4.78      45.1  T
   6    -26.1701187 -0.507612E-09  0.198E-04    4.78     110.2  T
     SCC iter.                  ...        0 min,  0.003 sec
     gradient                   ...        0 min,  0.005 sec
 * total energy  :   -25.7180451 Eh     change       -0.3730606E-04 Eh
   gradient norm :     0.0022024 Eh/α   predicted    -0.1953183E-04 ( -47.64%)
   displ. norm   :     0.1116183 α      lambda       -0.3947494E-04
   maximum displ.:     0.1011741 α      in ANC's #2, #3, #1, ...

........................................................................
.............................. CYCLE   13 ..............................
........................................................................
   1    -26.1694107 -0.261694E+02  0.491E-02    4.77       0.0  T
   2    -26.1694111 -0.431290E-06  0.288E-02    4.77       1.0  T
   3    -26.1694098  0.131636E-05  0.812E-03    4.77       2.7  T
   4    -26.1694114 -0.159755E-05  0.925E-04    4.77      23.6  T
   5    -26.1694114 -0.101086E-08  0.486E-04    4.77      44.9  T
   6    -26.1694114 -0.108194E-08  0.142E-04    4.77     153.2  T
     SCC iter.                  ...        0 min,  0.003 sec
     gradient                   ...        0 min,  0.005 sec
 * total energy  :   -25.7180760 Eh     change       -0.3088359E-04 Eh
   gradient norm :     0.0021410 Eh/α   predicted    -0.1998475E-04 ( -35.29%)
   displ. norm   :     0.1827670 α      lambda       -0.6514908E-04
   maximum displ.:     0.1479317 α      in ANC's #2, #3, #5, ...

........................................................................
.............................. CYCLE   14 ..............................
........................................................................
   1    -26.1690932 -0.261691E+02  0.736E-02    4.77       0.0  T
   2    -26.1690945 -0.139779E-05  0.432E-02    4.77       1.0  T
   3    -26.1690904  0.414009E-05  0.150E-02    4.77       1.5  T
   4    -26.1690955 -0.510760E-05  0.156E-03    4.77      14.0  T
   5    -26.1690955 -0.263285E-08  0.868E-04    4.77      25.1  T
   6    -26.1690955 -0.423907E-08  0.227E-04    4.77      96.3  T
     SCC iter.                  ...        0 min,  0.003 sec
     gradient                   ...        0 min,  0.005 sec
 * total energy  :   -25.7181274 Eh     change       -0.5138878E-04 Eh
   gradient norm :     0.0028448 Eh/α   predicted    -0.3366402E-04 ( -34.49%)
   displ. norm   :     0.2531680 α      lambda       -0.7402244E-04
   maximum displ.:     0.1962123 α      in ANC's #2, #3, #5, ...

........................................................................
.............................. CYCLE   15 ..............................
........................................................................
   1    -26.1684069 -0.261684E+02  0.100E-01    4.77       0.0  T
   2    -26.1684093 -0.233473E-05  0.586E-02    4.77       1.0  T
   3    -26.1684024  0.688716E-05  0.192E-02    4.77       1.1  T
   4    -26.1684108 -0.847159E-05  0.213E-03    4.77      10.2  T
   5    -26.1684108 -0.453286E-08  0.117E-03    4.77      18.6  T
   6    -26.1684108 -0.796269E-08  0.272E-04    4.77      80.2  T
   7    -26.1684108 -0.141640E-09  0.129E-04    4.77     169.8  T
     SCC iter.                  ...        0 min,  0.004 sec
     gradient                   ...        0 min,  0.005 sec
 * total energy  :   -25.7181806 Eh     change       -0.5320857E-04 Eh
   gradient norm :     0.0030068 Eh/α   predicted    -0.3938718E-04 ( -25.98%)
   displ. norm   :     0.1804034 α      lambda       -0.5009684E-04
   maximum displ.:     0.1154551 α      in ANC's #2, #3, #1, ...

........................................................................
.............................. CYCLE   16 ..............................
........................................................................
   1    -26.1687250 -0.261687E+02  0.715E-02    4.78       0.0  T
   2    -26.1687260 -0.971002E-06  0.419E-02    4.78       1.0  T
   3    -26.1687232  0.277222E-05  0.121E-02    4.78       1.8  T
   4    -26.1687266 -0.339880E-05  0.147E-03    4.78      14.9  T
   5    -26.1687266 -0.202510E-08  0.807E-04    4.78      27.0  T
   6    -26.1687266 -0.410127E-08  0.175E-04    4.78     124.5  T
     SCC iter.                  ...        0 min,  0.003 sec
     gradient                   ...        0 min,  0.005 sec
 * total energy  :   -25.7182160 Eh     change       -0.3542418E-04 Eh
   gradient norm :     0.0020704 Eh/α   predicted    -0.2586456E-04 ( -26.99%)
   displ. norm   :     0.1198083 α      lambda       -0.2666974E-04
   maximum displ.:     0.0818803 α      in ANC's #2, #3, #1, ...

........................................................................
.............................. CYCLE   17 ..............................
........................................................................
   1    -26.1688634 -0.261689E+02  0.482E-02    4.78       0.0  T
   2    -26.1688638 -0.419584E-06  0.282E-02    4.78       1.0  T
   3    -26.1688629  0.883390E-06  0.692E-03    4.78       3.2  T
   4    -26.1688640 -0.110744E-05  0.104E-03    4.78      21.1  T
   5    -26.1688640 -0.185959E-08  0.542E-04    4.78      40.3  T
   6    -26.1688640 -0.155087E-08  0.190E-04    4.78     115.0  T
     SCC iter.                  ...        0 min,  0.003 sec
     gradient                   ...        0 min,  0.005 sec
 * total energy  :   -25.7182333 Eh     change       -0.1725921E-04 Eh
   gradient norm :     0.0011836 Eh/α   predicted    -0.1352774E-04 ( -21.62%)
   displ. norm   :     0.0891556 α      lambda       -0.1026179E-04
   maximum displ.:     0.0572220 α      in ANC's #3, #2, #8, ...

........................................................................
.............................. CYCLE   18 ..............................
........................................................................
   1    -26.1694803 -0.261695E+02  0.361E-02    4.78       0.0  T
   2    -26.1694805 -0.178905E-06  0.211E-02    4.78       1.0  T
   3    -26.1694803  0.217596E-06  0.362E-03    4.78       6.0  T
   4    -26.1694806 -0.293189E-06  0.745E-04    4.78      29.3  T
   5    -26.1694806 -0.155847E-08  0.370E-04    4.78      58.9  T
     SCC iter.                  ...        0 min,  0.002 sec
     gradient                   ...        0 min,  0.005 sec
 * total energy  :   -25.7182405 Eh     change       -0.7251423E-05 Eh
   gradient norm :     0.0011090 Eh/α   predicted    -0.5151105E-05 ( -28.96%)
   displ. norm   :     0.0405286 α      lambda       -0.4060206E-05
   maximum displ.:     0.0307360 α      in ANC's #2, #3, #1, ...

........................................................................
.............................. CYCLE   19 ..............................
........................................................................
   1    -26.1691363 -0.261691E+02  0.174E-02    4.78       0.0  T
   2    -26.1691363 -0.369935E-07  0.102E-02    4.78       2.1  T
   3    -26.1691363  0.781899E-07  0.199E-03    4.78      10.9  T
   4    -26.1691364 -0.971098E-07  0.306E-04    4.78      71.3  T
   5    -26.1691364 -0.253166E-09  0.158E-04    4.78     138.1  T
     SCC iter.                  ...        0 min,  0.003 sec
     gradient                   ...        0 min,  0.005 sec
 * total energy  :   -25.7182446 Eh     change       -0.4115123E-05 Eh
   gradient norm :     0.0007392 Eh/α   predicted    -0.2035241E-05 ( -50.54%)
   displ. norm   :     0.0373018 α      lambda       -0.4386229E-05
   maximum displ.:     0.0225229 α      in ANC's #1, #5, #7, ...

   *** GEOMETRY OPTIMIZATION CONVERGED AFTER 19 ITERATIONS ***

------------------------------------------------------------------------
 total energy gain :          -0.0358198 Eh      -22.4772 kcal/mol
 total RMSD        :           0.7195438 α         0.3808 Å
------------------------------------------------------------------------

 ANCopt (total)                0 d,  0 h,  0 min,  0.217 sec
 optimizer setup                ...        0 min,  0.001 sec (  0.280%)
 model hessian                  ...        0 min,  0.004 sec (  1.937%)
 ANC generation                 ...        0 min,  0.001 sec (  0.261%)
 coordinate transformation      ...        0 min,  0.000 sec (  0.087%)
 single point calculation       ...        0 min,  0.201 sec ( 92.363%)
 optimization log               ...        0 min,  0.001 sec (  0.562%)
 hessian update                 ...        0 min,  0.000 sec (  0.103%)
 rational function              ...        0 min,  0.009 sec (  4.055%)

================
 final structure:
================
$coord
    1.02126973996383   -7.02779693139068    1.50063287483856      N 
   -0.14795934569377    5.05386452715301    0.45763752155788      C 
   -0.60657451154995   -7.73569007026931    0.70939252044477      H 
    1.32102487324347   -7.90836766716277    3.20583110680247      H 
    2.50229561381145   -7.44215304287266    0.31100771799504      H 
    0.79985758238917   -4.21614076101851    1.80129187571410      C 
   -0.80821542725355   -3.81088570360440    3.02604921609833      H 
    2.51229653882447   -3.51761264588996    2.71107455081325      H 
    0.44748384744651   -2.93968411342214   -0.75561761990074      C 
   -1.26563853050624   -3.63494251333774   -1.66886465172524      H 
    2.06256380561101   -3.33971597410358   -1.97519452947729      H 
    2.39624727527545    1.35583429374725   -0.16806577198155      C 
    2.20609621708951    3.93243917263940    0.23565015061392      C 
    0.23271755748392   -0.11496269864531   -0.36018875358778      C 
   -2.12163131281715    1.01669899496109   -0.12956347094915      C 
   -2.31103692890906    3.59411500452583    0.27229794150508      C 
    4.23807068690455    0.49524504389129   -0.36225780865708      H 
    3.89616432876377    5.06437266086216    0.36981750943322      H 
   -3.81622853237300   -0.11067030847008   -0.29072448773249      H 
   -0.29530638287556    7.06401550977232    0.76444888247262      H 
   -4.14901386854632    4.46136194342885    0.43364720604578      H 
$end
 
 Bond Distances (Angstroems)
 ---------------------------
N1-H3=1.0284         N1-H4=1.0279         N1-H5=1.0289         N1-C6=1.5009         C2-C13=1.3848        C2-C16=1.3844        
C2-H20=1.0789        H3-N1=1.0284         H4-N1=1.0279         H5-N1=1.0289         C6-N1=1.5009         C6-H7=1.0909         
C6-H8=1.0907         C6-C9=1.5237         H7-C6=1.0909         H8-C6=1.0907         C9-C6=1.5237         C9-H10=1.0912        
C9-H11=1.0917        C9-C14=1.5136        H10-C9=1.0912        H11-C9=1.0917        C12-C13=1.3838       C12-C14=1.3881       
C12-H17=1.0807       C13-C2=1.3848        C13-C12=1.3838       C13-H18=1.0787       C14-C9=1.5136        C14-C12=1.3881       
C14-C15=1.3877       C15-C14=1.3877       C15-C16=1.3840       C15-H19=1.0804       C16-C2=1.3844        C16-C15=1.3840       
C16-H21=1.0788       H17-C12=1.0807       H18-C13=1.0787       H19-C15=1.0804       H20-C2=1.0789        H21-C16=1.0788       
 C  H  Rav=1.0847 sigma=0.0058  Rmin=1.0787  Rmax=1.0917     9
 C  C  Rav=1.4188 sigma=0.0578  Rmin=1.3838  Rmax=1.5237     8
 N  H  Rav=1.0284 sigma=0.0004  Rmin=1.0279  Rmax=1.0289     3
 N  C  Rav=1.5009 sigma=0.0000  Rmin=1.5009  Rmax=1.5009     1
 
 selected bond angles (degree)
 --------------------
H4-N1-H3=108.76                H5-N1-H3=108.14                H5-N1-H4=108.84                C6-N1-H3=109.81                
C6-N1-H4=111.62                C6-N1-H5=109.61                C16-C2-C13=119.91              H20-C2-C13=120.02              
H20-C2-C16=120.07              H7-C6-N1=108.59                H8-C6-N1=108.54                H8-C6-H7=108.62                
C9-C6-N1=110.79                C9-C6-H7=110.18                C9-C6-H8=110.08                H10-C9-C6=110.21               
H11-C9-C6=110.07               H11-C9-H10=108.86              C14-C9-C6=108.92               C14-C9-H10=109.38              
C14-C9-H11=109.39              
 
 selected dihedral angles (degree)
 ---------------------------------
H7-C6-N1-H3= 59.85            H7-C6-N1-H4=299.17            H7-C6-N1-H5=178.51            H8-C6-N1-H3=177.75            
H8-C6-N1-H4= 57.07            H8-C6-N1-H5=296.41            C9-C6-N1-H3=298.73            C9-C6-N1-H4=178.04            
C9-C6-N1-H5= 57.38            H10-C9-C6-N1= 59.98           H10-C9-C6-H7=299.80           H10-C9-C6-H8=180.04           
H11-C9-C6-N1=299.90           H11-C9-C6-H7=179.72           H11-C9-C6-H8= 59.96           C14-C9-C6-N1=179.98           
C14-C9-C6-H7= 59.80           C14-C9-C6-H8=300.03           

========================================================================
 FINAL SINGLEPOINT CALCULATION ON OPTIMIZED GEOMETRY
========================================================================

          ...................................................
          :                      SETUP                      :
          :.................................................:
          :  # basis functions                  48          :
          :  # atomic orbitals                  48          :
          :  # shells                           30          :
          :  # electrons                        48          :
          :  max. iterations                    50          :
          :  Hamiltonian                  GFN2-xTB          :
          :  restarted?                      false          :
          :  GBSA solvation                  false          :
          :  PC potential                    false          :
          :  electronic temp.          300.0000000     K    :
          :  accuracy                    1.0000000          :
          :  -> integral cutoff          0.2500000E+02      :
          :  -> integral neglect         0.1000000E-07      :
          :  -> SCF convergence          0.1000000E-05 Eh   :
          :  -> wf. convergence          0.1000000E-03 e    :
          :  Broyden damping             0.4000000          :
          ...................................................

 iter      E             dE          RMSdq      gap      omega  full diag
   1    -26.1691364 -0.261691E+02  0.432E-05    4.78       0.0  T
   2    -26.1691364 -0.115818E-10  0.194E-05    4.78    1123.6  T
   3    -26.1691364 -0.369837E-11  0.132E-05    4.78    1648.1  T

   *** convergence criteria satisfied after 3 iterations ***

         #    Occupation            Energy/Eh            Energy/eV
      -------------------------------------------------------------
         1        2.0000           -0.8960347             -24.3823
       ...           ...                  ...                  ...
        18        2.0000           -0.5850477             -15.9200
        19        2.0000           -0.5821422             -15.8409
        20        2.0000           -0.5813755             -15.8200
        21        2.0000           -0.5315905             -14.4653
        22        2.0000           -0.5266804             -14.3317
        23        2.0000           -0.5105104             -13.8917
        24        2.0000           -0.5098046             -13.8725 (HOMO)
        25                         -0.3342196              -9.0946 (LUMO)
        26                         -0.3287913              -8.9469
        27                         -0.2651580              -7.2153
        28                         -0.2026793              -5.5152
        29                         -0.1579424              -4.2978
       ...                                ...                  ...
        48                          0.5584054              15.1950
      -------------------------------------------------------------
                  HL-Gap            0.1755850 Eh            4.7779 eV
             Fermi-level           -0.4220121 Eh          -11.4835 eV

 SCC (total)                   0 d,  0 h,  0 min,  0.010 sec
 SCC setup                      ...        0 min,  0.000 sec (  1.136%)
 Dispersion                     ...        0 min,  0.000 sec (  0.819%)
 integral evaluation            ...        0 min,  0.002 sec ( 24.296%)
 zeroth order Hamiltonian       ...        0 min,  0.000 sec (  0.238%)
 iterations                     ...        0 min,  0.001 sec ( 14.683%)
 molecular gradient             ...        0 min,  0.005 sec ( 53.038%)
 printout                       ...        0 min,  0.001 sec (  5.613%)

         :::::::::::::::::::::::::::::::::::::::::::::::::::::
         ::                     SUMMARY                     ::
         :::::::::::::::::::::::::::::::::::::::::::::::::::::
         :: total energy              -25.718244629543 Eh   ::
         :: gradient norm               0.000738950757 Eh/α ::
         :: HOMO-LUMO gap               4.777911869992 eV   ::
         ::.................................................::
         :: SCC energy                -26.169136357872 Eh   ::
         :: -> isotropic ES             0.107835942359 Eh   ::
         :: -> anisotropic ES          -0.009975478966 Eh   ::
         :: -> anisotropic XC           0.019427705960 Eh   ::
         :: -> dispersion              -0.014438674741 Eh   ::
         :: repulsion energy            0.450877257897 Eh   ::
         :: add. restraining            0.000000000000 Eh   ::
         :::::::::::::::::::::::::::::::::::::::::::::::::::::

           -------------------------------------------------
          |                Property Printout                |
           -------------------------------------------------

    * Orbital Energies and Occupations

         #    Occupation            Energy/Eh            Energy/eV
      -------------------------------------------------------------
         1        2.0000           -0.8960347             -24.3823
       ...           ...                  ...                  ...
        12        2.0000           -0.6722752             -18.2935
        13        2.0000           -0.6535306             -17.7835
        14        2.0000           -0.6380418             -17.3620
        15        2.0000           -0.6215053             -16.9120
        16        2.0000           -0.6077237             -16.5370
        17        2.0000           -0.5895543             -16.0426
        18        2.0000           -0.5850477             -15.9200
        19        2.0000           -0.5821422             -15.8409
        20        2.0000           -0.5813755             -15.8200
        21        2.0000           -0.5315905             -14.4653
        22        2.0000           -0.5266804             -14.3317
        23        2.0000           -0.5105104             -13.8917
        24        2.0000           -0.5098046             -13.8725 (HOMO)
        25                         -0.3342196              -9.0946 (LUMO)
        26                         -0.3287913              -8.9469
        27                         -0.2651580              -7.2153
        28                         -0.2026793              -5.5152
        29                         -0.1579424              -4.2978
        30                         -0.1005558              -2.7363
        31                         -0.0971595              -2.6438
        32                         -0.0492796              -1.3410
        33                         -0.0268426              -0.7304
        34                         -0.0025486              -0.0694
        35                          0.0084512               0.2300
       ...                                ...                  ...
        48                          0.5584054              15.1950
      -------------------------------------------------------------
                  HL-Gap            0.1755850 Eh            4.7779 eV
             Fermi-level           -0.4220121 Eh          -11.4835 eV

   #   Z        covCN         q      C6AA      α(0)
   1   7 N      3.482    -0.128    23.769     7.241
   2   6 C      2.920    -0.022    28.547     8.762
   3   1 H      0.859     0.272     0.804     1.405
   4   1 H      0.859     0.269     0.814     1.414
   5   1 H      0.859     0.272     0.803     1.404
   6   6 C      3.734    -0.030    21.203     6.572
   7   1 H      0.924     0.106     1.728     2.056
   8   1 H      0.924     0.107     1.724     2.053
   9   6 C      3.807    -0.083    22.086     6.690
  10   1 H      0.924     0.063     2.163     2.300
  11   1 H      0.924     0.063     2.164     2.300
  12   6 C      2.923    -0.040    29.002     8.832
  13   6 C      2.920    -0.023    28.581     8.767
  14   6 C      2.974     0.001    27.998     8.679
  15   6 C      2.923    -0.039    28.974     8.827
  16   6 C      2.920    -0.023    28.574     8.766
  17   1 H      0.926     0.035     2.523     2.484
  18   1 H      0.926     0.054     2.274     2.358
  19   1 H      0.926     0.037     2.494     2.470
  20   1 H      0.926     0.057     2.237     2.339
  21   1 H      0.926     0.054     2.268     2.355

 Mol. C6AA /au·bohr⁶  :       3861.837950
 Mol. C8AA /au·bohr⁸  :      90371.651483
 Mol. α(0) /au        :         98.072780


Wiberg/Mayer (AO) data.
largest (>0.10) Wiberg bond orders for each atom
          total WBO             WBO to atom ...
     1  N   3.674        C    6 0.915    H    4 0.913    H    3 0.911    H    5 0.910
     2  C   3.990        C   16 1.441    C   13 1.438    H   20 0.969    C   14 0.110
     3  H   0.926        N    1 0.911
     4  H   0.927        N    1 0.913
     5  H   0.926        N    1 0.910
     6  C   3.884        C    9 1.000    H    7 0.967    H    8 0.967    N    1 0.915
     7  H   0.989        C    6 0.967
     8  H   0.989        C    6 0.967
     9  C   3.978        C    6 1.000    C   14 0.985    H   10 0.971    H   11 0.969
    10  H   0.996        C    9 0.971
    11  H   0.996        C    9 0.969
    12  C   3.992        C   13 1.444    C   14 1.416    H   17 0.969    C   16 0.112
    13  C   3.991        C   12 1.444    C    2 1.438    H   18 0.969    C   15 0.111
    14  C   3.980        C   15 1.418    C   12 1.416    C    9 0.985    C    2 0.110
    15  C   3.991        C   16 1.441    C   14 1.418    H   19 0.969    C   13 0.111
    16  C   3.990        C   15 1.441    C    2 1.441    H   21 0.969    C   12 0.112
    17  H   0.999        C   12 0.969
    18  H   0.997        C   13 0.969
    19  H   0.999        C   15 0.969
    20  H   0.996        C    2 0.969
    21  H   0.997        C   16 0.969

molecular dipole:
                 x           y           z       tot (Debye)
 q only:        0.877      -5.649       1.390
   full:        0.913      -5.989       1.409      15.810
molecular quadrupole (traceless):
                xx          xy          yy          xz          yz          zz
 q only:      -21.346      -9.367      43.830       1.994     -12.838     -22.485
  q+dip:      -19.398      -9.650      46.848       1.840     -12.675     -27.450
   full:      -21.463      -9.807      46.462       1.974     -13.335     -24.999

           -------------------------------------------------
          |                Geometry Summary                 |
           -------------------------------------------------

      molecular mass/u    :      122.1895000
   center of mass at/Å    :        0.1644750      -0.1158144       0.1930081
  moments of inertia/u·Å² :        0.1157012E+03   0.5973064E+03   0.6658320E+03
rotational constants/cm⁻¹ :        0.1456997E+00   0.2822276E-01   0.2531815E-01

 * 21 selected distances

     #   Z        #   Z                                     value/Å
     1   7 N      3   1 H                                 1.0284368
     1   7 N      4   1 H                                 1.0278795 (min)
     1   7 N      5   1 H                                 1.0288840
     1   7 N      6   6 C                                 1.5009271
     6   6 C      7   1 H                                 1.0909475
     6   6 C      8   1 H                                 1.0906821
     6   6 C      9   6 C                                 1.5237452 (max)
     9   6 C     10   1 H                                 1.0912082
     9   6 C     11   1 H                                 1.0916808
     2   6 C     13   6 C                                 1.3848328
    12   6 C     13   6 C                                 1.3837795
     9   6 C     14   6 C                                 1.5136264
    12   6 C     14   6 C                                 1.3881214
    14   6 C     15   6 C                                 1.3876966
     2   6 C     16   6 C                                 1.3843953
    15   6 C     16   6 C                                 1.3840227
    12   6 C     17   1 H                                 1.0806932
    13   6 C     18   1 H                                 1.0787437
    15   6 C     19   1 H                                 1.0804284
     2   6 C     20   1 H                                 1.0788666
    16   6 C     21   1 H                                 1.0788353

 * 4 distinct bonds (by element types)

   Z      Z             #   av. dist./Å        max./Å        min./Å
   1 H    6 C           9     1.0846762     1.0916808     1.0787437
   6 C    6 C           8     1.4187775     1.5237452     1.3837795
   1 H    7 N           3     1.0284001     1.0288840     1.0278795
   6 C    7 N           1     1.5009271     1.5009271     1.5009271


optimized geometry written to: xtbopt.xyz


           -------------------------------------------------
          | TOTAL ENERGY              -25.718244629543 Eh   |
          | GRADIENT NORM               0.000738950757 Eh/α |
          | HOMO-LUMO GAP               4.777911869992 eV   |
           -------------------------------------------------

------------------------------------------------------------------------
 * finished run on 2022/07/07 at 15:07:18.939     
------------------------------------------------------------------------
 total:
 * wall-time:     0 d,  0 h,  0 min,  0.492 sec
 *  cpu-time:     0 d,  0 h,  0 min,  0.258 sec
 * ratio c/w:     0.524 speedup
 SCF:
 * wall-time:     0 d,  0 h,  0 min,  0.080 sec
 *  cpu-time:     0 d,  0 h,  0 min,  0.016 sec
 * ratio c/w:     0.201 speedup
 ANC optimizer:
 * wall-time:     0 d,  0 h,  0 min,  0.229 sec
 *  cpu-time:     0 d,  0 h,  0 min,  0.227 sec
 * ratio c/w:     0.993 speedup

