ITEM: TIMESTEP
10000
ITEM: NUMBER OF ATOMS
656
ITEM: BOX BOUNDS pp pp pp
-3.2000000000000002e+00 2.2400000000000002e+01
-4.3779677730546460e+01 4.3779677730546460e+01
-3.2000000000000002e+00 2.2400000000000002e+01
ITEM: ATOMS id type x y z 
1 10 15.4847 0.325317 15.8295 
2 4 18.5878 0.221556 16.0552 
3 4 15.5096 -2.59534 15.2761 
4 4 15.1357 0.259984 18.9954 
5 4 15.5845 3.37852 15.7286 
6 9 19.4067 -2.08461 18.9422 
7 5 18.3938 -7.04332 18.7547 
8 3 19.9946 -2.31505 18.1259 
9 3 19.9409 -2.34184 19.7835 
10 3 19.3375 -1.05375 18.949 
11 8 18.0372 -2.75493 18.9 
12 2 17.4764 -2.41562 19.7701 
13 2 17.4893 -2.38599 18.0277 
14 6 18.1544 -4.99559 20.06 
15 5 18.2701 -6.39332 20.0023 
16 7 18.1445 -4.25295 18.8699 
17 6 18.2802 -4.89604 17.6304 
18 5 18.4223 -6.28731 17.5654 
19 1 18.0854 -4.48074 21.0191 
20 1 18.291 -6.9676 20.9255 
21 1 18.294 -4.29069 16.7218 
22 1 18.4954 -8.12439 18.7216 
23 1 18.5282 -6.76075 16.5937 
24 9 19.8055 2.57797 18.7837 
25 5 18.131 7.07034 20.5292 
26 3 19.7927 2.40518 19.8032 
27 3 20.7314 2.99109 18.5744 
28 3 19.818 1.65649 18.3267 
29 8 18.6255 3.41666 18.3153 
30 2 18.734 3.60039 17.2409 
31 2 17.7217 2.80554 18.4455 
32 6 19.5867 5.48035 19.4236 
33 5 19.4193 6.66811 20.1471 
34 7 18.4665 4.71364 19.0608 
35 6 17.1823 5.1198 19.429 
36 5 17.0136 6.27874 20.1968 
37 1 20.5852 5.13544 19.163 
38 1 20.2895 7.2499 20.435 
39 1 16.3274 4.49403 19.1734 
40 1 17.9917 7.96484 21.126 
41 1 16.0229 6.53408 20.5645 
42 10 15.7817 0.307109 22.2474 
43 4 18.8181 0.316883 21.7524 
44 4 15.3323 -2.72425 22.2274 
45 4 15.8525 0.251747 -0.25451 
46 4 15.317 3.14116 22.1744 
47 9 18.888 -2.17074 0.65421 
48 5 19.8231 -6.99806 -0.720957 
49 3 19.9028 -2.04404 0.79705 
50 3 18.5441 -2.68212 1.48517 
51 3 18.451 -1.23772 0.707248 
52 8 18.5465 -2.87007 -0.660169 
53 2 17.4594 -2.81134 -0.774915 
54 2 19.0001 -2.30735 -1.49074 
55 6 18.0433 -5.34671 -0.857446 
56 5 18.462 -6.69173 -0.883913 
57 7 18.9847 -4.32224 -0.691169 
58 6 20.3383 -4.63692 -0.513717 
59 5 20.7662 -5.97204 -0.535983 
60 1 16.9916 -5.09074 -0.99209 
61 1 17.7311 -7.48068 -1.03989 
62 1 21.067 -3.83445 -0.388022 
63 1 20.1522 -8.03001 -0.750448 
64 1 21.823 -6.19493 -0.412962 
65 9 18.8669 2.52805 0.559051 
66 5 20.349 7.09352 -0.881924 
67 3 18.6239 2.8807 1.50468 
68 3 19.8997 2.52623 0.509858 
69 3 18.5628 1.54175 0.545158 
70 8 18.2348 3.34013 -0.580363 
71 2 18.3501 2.76455 -1.50677 
72 2 17.1588 3.41503 -0.385668 
73 6 19.4566 5.09329 -1.94771 
74 5 20.2543 6.24931 -1.99961 
75 7 18.8399 4.7177 -0.745945 
76 6 18.9489 5.55603 0.373627 
77 5 19.6641 6.75942 0.295105 
78 1 19.3886 4.43094 -2.81112 
79 1 20.8314 6.4436 -2.90015 
80 1 18.5099 5.23919 1.32042 
81 1 20.9712 7.98227 -0.922924 
82 1 19.7558 7.37913 1.18194 
83 10 15.4592 0.277698 2.93839 
84 4 18.8858 0.169187 3.3294 
85 4 15.7061 -2.74462 2.56114 
86 4 15.1277 0.0601715 6.14887 
87 4 15.9331 3.27321 3.04361 
88 9 19.7104 -2.17863 6.24639 
89 5 17.4299 -6.51277 7.67762 
90 3 20.6262 -2.54157 5.92203 
91 3 19.7041 -2.24513 7.27771 
92 3 19.711 -1.17276 6.01209 
93 8 18.5164 -2.88701 5.61405 
94 2 17.6574 -2.20962 5.67123 
95 2 18.7249 -3.03831 4.54697 
96 6 16.8052 -4.48751 6.47979 
97 5 16.4446 -5.621 7.21724 
98 7 18.1612 -4.18966 6.27969 
99 6 19.1526 -5.08215 6.73177 
100 5 18.7901 -6.254 7.41025 
101 1 16.0434 -3.77633 6.15177 
102 1 15.4053 -5.758 7.49517 
103 1 20.2028 -4.84302 6.5662 
104 1 17.1422 -7.37544 8.26956 
105 1 19.5595 -6.93038 7.76792 
106 9 19.703 2.55548 6.33497 
107 5 18.1833 7.28889 7.64008 
108 3 19.6932 2.50529 7.36695 
109 3 20.6333 2.91715 6.06213 
110 3 19.6631 1.58861 5.97317 
111 8 18.5723 3.40856 5.78892 
112 2 18.7266 3.47846 4.71199 
113 2 17.6359 2.85611 5.94965 
114 6 19.6115 5.54673 6.71956 
115 5 19.4717 6.78699 7.36004 
116 7 18.4698 4.79941 6.37256 
117 6 17.1926 5.31035 6.64253 
118 5 17.0406 6.54432 7.28683 
119 1 20.6022 5.13743 6.52809 
120 1 20.3553 7.34182 7.6634 
121 1 16.3216 4.70747 6.38658 
122 1 18.0699 8.23648 8.15658 
123 1 16.0445 6.88997 7.55181 
124 10 15.6798 0.325745 9.1354 
125 4 18.7455 0.127386 8.93844 
126 4 15.0867 -2.63534 9.56157 
127 4 15.9757 0.551831 12.4178 
128 4 15.1088 3.27807 9.22873 
129 9 18.6986 -1.95911 13.2438 
130 5 19.8666 -6.57992 11.8023 
131 3 19.7243 -2.0476 13.1657 
132 3 18.4452 -2.28035 14.1962 
133 3 18.4695 -0.952898 13.2154 
134 8 17.9712 -2.73775 12.1575 
135 2 16.8996 -2.74074 12.3476 
136 2 18.1094 -2.19776 11.2194 
137 6 18.6082 -4.9781 13.1432 
138 5 19.2835 -6.20566 13.0277 
139 7 18.4902 -4.14561 12.0197 
140 6 19.0557 -4.52027 10.8002 
141 5 19.7927 -5.714 10.7007 
142 1 18.2389 -4.63914 14.1107 
143 1 19.4001 -6.83664 13.9036 
144 1 19.0167 -3.83455 9.95286 
145 1 20.4333 -7.5031 11.7242 
146 1 20.3252 -5.93222 9.77813 
147 9 18.8469 2.81443 13.5316 
148 5 17.4335 7.11975 11.1923 
149 3 17.8262 2.69414 13.6684 
150 3 19.1753 3.4553 14.2709 
151 3 19.2819 1.9029 13.738 
152 8 19.2085 3.28259 12.1276 
153 2 20.3006 3.32438 12.059 
154 2 18.8665 2.52328 11.4124 
155 6 19.3833 5.66291 11.2519 
156 5 18.8069 6.91128 10.9666 
157 7 18.6026 4.62771 11.7905 
158 6 17.2422 4.84834 12.0298 
159 5 16.6514 6.08211 11.7215 
160 1 20.4368 5.47625 11.0565 
161 1 19.4157 7.70873 10.5498 
162 1 16.6117 4.03023 12.378 
163 1 16.9705 8.06753 10.9378 
164 1 15.5792 6.19642 11.8614 
165 10 22.1423 0.0636427 15.471 
166 4 -0.34738 -0.0983711 15.2032 
167 4 21.3614 -2.94209 15.6035 
168 4 22.353 0.0267553 18.5911 
169 4 21.8632 3.08273 15.6634 
170 9 -0.508543 -2.34929 19.3376 
171 5 -0.762748 -7.41794 18.636 
172 3 0.347737 -2.53997 19.8862 
173 3 -1.31402 -2.53891 19.9617 
174 3 -0.51938 -1.3257 19.1824 
175 8 -0.56919 -3.13188 18.0152 
176 2 -1.45313 -2.77946 17.4741 
177 2 0.298363 -2.84239 17.4091 
178 6 -1.84168 -5.24376 18.5601 
179 5 -1.91459 -6.62895 18.7881 
180 7 -0.626615 -4.64567 18.1922 
181 6 0.525095 -5.43786 18.0553 
182 5 0.465075 -6.82555 18.2787 
183 1 -2.72909 -4.62134 18.6811 
184 1 -2.86187 -7.07142 19.0889 
185 1 1.46754 -4.96064 17.7874 
186 1 -0.814859 -8.48671 18.8172 
187 1 1.36355 -7.42941 18.1759 
188 9 -0.234173 2.35373 19.4924 
189 5 0.736746 7.22991 18.2005 
190 3 -0.531603 2.67219 20.4329 
191 3 0.798408 2.37231 19.4972 
192 3 -0.529792 1.36695 19.4254 
193 8 -0.809695 3.19442 18.3682 
194 2 -0.593967 2.6808 17.4212 
195 2 -1.89512 3.20871 18.4859 
196 6 -0.0398178 5.21699 17.0859 
197 5 0.496812 6.5105 17.0124 
198 7 -0.283843 4.61538 18.3261 
199 6 -0.0792825 5.34826 19.5119 
200 5 0.410091 6.66003 19.4448 
201 1 -0.218401 4.65202 16.1719 
202 1 0.750612 6.92712 16.0414 
203 1 -0.299895 4.88419 20.4741 
204 1 1.15607 8.22962 18.1496 
205 1 0.583553 7.20735 20.3664 
206 10 22.0168 0.106013 22.1746 
207 4 -0.599371 0.0741695 22.1789 
208 4 21.8852 -2.87372 21.8606 
209 4 21.6072 0.170997 -0.369142 
210 4 22.232 3.11694 21.5921 
211 9 0.186829 -2.33628 -0.216421 
212 5 -1.12688 -7.32131 0.100787 
213 3 1.11389 -2.72482 -0.474887 
214 3 0.169913 -2.27678 0.814974 
215 3 0.204281 -1.36423 -0.569299 
216 8 -0.98576 -3.12104 -0.796713 
217 2 -1.91663 -2.64414 -0.464768 
218 2 -0.928814 -2.99998 -1.88321 
219 6 -0.98107 -5.01197 0.864885 
220 5 -1.05238 -6.38548 1.14898 
221 7 -1.00297 -4.58831 -0.468223 
222 6 -1.01229 -5.52041 -1.52318 
223 5 -1.06221 -6.8889 -1.24143 
224 1 -0.938305 -4.27365 1.66373 
225 1 -1.08527 -6.71374 2.1842 
226 1 -0.989969 -5.15383 -2.55055 
227 1 -1.20998 -8.3802 0.322066 
228 1 -1.08715 -7.60689 -2.0552 
229 9 0.403884 2.46721 -0.401743 
230 5 -0.779106 7.00406 1.37931 
231 3 0.517982 2.53759 0.623374 
232 3 1.32295 2.6993 -0.815329 
233 3 0.253839 1.46778 -0.616201 
234 8 -0.738229 3.34345 -0.925568 
235 2 -0.643086 3.41337 -2.01426 
236 2 -1.6775 2.81284 -0.71926 
237 6 0.427456 5.37365 0.0447614 
238 5 0.437342 6.50177 0.878348 
239 7 -0.775091 4.71513 -0.274595 
240 6 -1.9832 5.23261 0.194782 
241 5 -1.98341 6.36427 1.03873 
242 1 1.36985 4.93904 -0.281378 
243 1 1.38425 6.93519 1.19034 
244 1 -2.91188 4.69089 0.0107794 
245 1 -0.782087 7.83886 2.07143 
246 1 -2.92743 6.68172 1.47561 
247 10 22.144 0.255192 2.88331 
248 4 -0.456678 0.292247 2.36752 
249 4 21.9578 -2.78018 3.00115 
250 4 -3.10801 0.205069 6.04542 
251 4 21.6203 3.2946 3.06106 
252 9 -0.0545834 -2.1352 6.77942 
253 5 0.716372 -7.0786 6.07626 
254 3 0.971426 -2.24151 6.85482 
255 3 -0.444264 -2.32805 7.71969 
256 3 -0.244663 -1.13124 6.61725 
257 8 -0.672844 -3.00599 5.69962 
258 2 -1.76276 -2.92969 5.79259 
259 2 -0.395615 -2.59777 4.71822 
260 6 -0.193615 -5.07069 7.08928 
261 5 0.297349 -6.37963 7.22076 
262 7 -0.248767 -4.45363 5.82723 
263 6 0.14742 -5.15751 4.69235 
264 5 0.61188 -6.48059 4.80753 
265 1 -0.477727 -4.51733 7.98342 
266 1 0.371369 -6.82837 8.20921 
267 1 0.11437 -4.67345 3.71836 
268 1 1.11442 -8.08271 6.17948 
269 1 0.94474 -7.00028 3.91215 
270 9 -0.466492 2.80034 7.07064 
271 5 0.754585 7.4262 5.33122 
272 3 -0.906379 3.38536 7.7971 
273 3 0.524831 2.69874 7.34572 
274 3 -0.88801 1.86453 7.16285 
275 8 -0.636374 3.36143 5.66471 
276 2 -0.126415 2.69709 4.9526 
277 2 -1.70179 3.32075 5.43481 
278 6 1.21107 5.07992 5.78588 
279 5 1.65312 6.40867 5.70375 
280 7 -0.131486 4.78049 5.51737 
281 6 -1.01731 5.78832 5.1073 
282 5 -0.577188 7.11959 5.00633 
283 1 1.90561 4.28894 6.07548 
284 1 2.69127 6.631 5.94395 
285 1 -2.045 5.53084 4.85288 
286 1 1.10408 8.45093 5.27227 
287 1 -1.26594 7.89742 4.68564 
288 10 22.0659 0.0737796 9.43017 
289 4 -0.338784 0.185818 9.58764 
290 4 22.1772 -2.98513 8.92339 
291 4 21.7295 0.128792 12.391 
292 4 22.0652 3.15667 9.13778 
293 9 0.522162 -2.42137 12.3828 
294 5 -0.979381 -6.69618 14.5483 
295 3 1.448 -2.80891 12.13 
296 3 0.543717 -2.32358 13.4113 
297 3 0.513339 -1.47133 11.9777 
298 8 -0.647624 -3.28385 11.9028 
299 2 -1.56536 -2.69108 12.0367 
300 2 -0.528374 -3.45515 10.8264 
301 6 -2.0156 -4.96074 13.1761 
302 5 -2.12054 -5.98999 14.1336 
303 7 -0.764242 -4.58377 12.6833 
304 6 0.377092 -5.3014 13.0815 
305 5 0.274054 -6.34982 14.0126 
306 1 -2.89797 -4.38706 12.8886 
307 1 -3.08579 -6.17654 14.5996 
308 1 1.3642 -4.98416 12.7483 
309 1 -1.05371 -7.46126 15.3152 
310 1 1.17955 -6.82982 14.3753 
311 9 0.287966 2.41586 12.7174 
312 5 -0.735094 7.43425 13.51 
313 3 0.267424 2.48854 13.7491 
314 3 1.26217 2.6368 12.4422 
315 3 0.13848 1.41697 12.4914 
316 8 -0.749131 3.33718 12.0692 
317 2 -0.598634 3.30506 10.9857 
318 2 -1.74055 2.90344 12.2591 
319 6 0.478855 5.50408 12.6557 
320 5 0.474424 6.83244 13.1266 
321 7 -0.726472 4.78699 12.5462 
322 6 -1.9386 5.41773 12.8643 
323 5 -1.94369 6.72939 13.3753 
324 1 1.4219 5.02381 12.3904 
325 1 1.41659 7.36677 13.2237 
326 1 -2.86976 4.85664 12.7751 
327 1 -0.732217 8.44237 13.9138 
328 1 -2.88714 7.17562 13.6813 
329 10 2.85362 -0.0709285 15.7261 
330 4 5.87116 0.118089 16.0796 
331 4 2.9988 -3.10929 15.2602 
332 4 2.36278 -0.0991028 18.8362 
333 4 2.76062 2.9907 15.3869 
334 9 6.85186 -2.17598 18.8655 
335 5 5.26877 -6.72824 20.3432 
336 3 7.79408 -2.535 18.6322 
337 3 6.78685 -2.18542 19.8964 
338 3 6.84121 -1.18878 18.5725 
339 8 5.73384 -3.0069 18.2385 
340 2 4.79716 -2.44852 18.3381 
341 2 5.91844 -3.13173 17.1684 
342 6 4.29143 -4.80122 19.2344 
343 5 4.13029 -5.99783 19.9479 
344 7 5.57632 -4.34543 18.8982 
345 6 6.70752 -5.09051 19.2539 
346 5 6.5528 -6.2596 20.0019 
347 1 3.43433 -4.17466 18.9857 
348 1 3.13646 -6.30103 20.2711 
349 1 7.70479 -4.7288 19.0059 
350 1 5.15964 -7.62455 20.946 
351 1 7.44047 -6.78204 20.3441 
352 9 6.77108 2.58522 18.9972 
353 5 5.20791 7.2719 19.875 
354 3 7.07987 2.54819 19.9839 
355 3 7.45802 3.15308 18.4752 
356 3 6.84615 1.62616 18.6244 
357 8 5.34587 3.09644 18.8525 
358 2 5.03946 2.95158 17.8155 
359 2 4.67472 2.49108 19.4685 
360 6 4.85151 5.49448 18.2627 
361 5 4.81631 6.85945 18.5882 
362 7 5.23822 4.55285 19.2246 
363 6 5.60733 4.95929 20.5069 
364 5 5.59003 6.3213 20.839 
365 1 4.57601 5.15714 17.2662 
366 1 4.51079 7.58523 17.8396 
367 1 5.87376 4.21668 21.258 
368 1 5.19289 8.32553 20.1341 
369 1 5.86397 6.61594 21.8498 
370 10 2.7912 -0.0571898 21.8732 
371 4 5.91418 0.102367 21.6316 
372 4 2.24897 -3.07449 22.1797 
373 4 3.02702 0.0597405 -0.555038 
374 4 2.42215 3.05676 21.9723 
375 9 5.92721 -2.47225 0.528538 
376 5 7.5455 -6.98986 -1.03517 
377 3 6.92168 -2.29761 0.749819 
378 3 5.54775 -3.05545 1.29162 
379 3 5.42918 -1.5695 0.617152 
380 8 5.7202 -3.08885 -0.849568 
381 2 4.63824 -3.13841 -1.02413 
382 2 6.14585 -2.41999 -1.60898 
383 6 5.57231 -5.5834 -1.23067 
384 5 6.17404 -6.85373 -1.30599 
385 7 6.34799 -4.4557 -0.936207 
386 6 7.71688 -4.59841 -0.657755 
387 5 8.31849 -5.85871 -0.707641 
388 1 4.51084 -5.45424 -1.43918 
389 1 5.5723 -7.72284 -1.55739 
390 1 8.31473 -3.70994 -0.448949 
391 1 8.01815 -7.96588 -1.08722 
392 1 9.38326 -5.95776 -0.519409 
393 9 6.02058 2.45931 0.0689079 
394 5 5.97494 7.57962 -0.822554 
395 3 5.782 2.78121 1.02592 
396 3 7.05219 2.47815 -0.000885304 
397 3 5.7333 1.46526 0.0375389 
398 8 5.3435 3.30235 -1.01239 
399 2 5.62202 2.91664 -1.99996 
400 2 4.27271 3.13841 -0.889485 
401 6 6.86706 5.33311 -0.689269 
402 5 7.07119 6.71206 -0.63665 
403 7 5.5881 4.79722 -0.920098 
404 6 4.49707 5.66576 -1.06921 
405 5 4.6844 7.05688 -1.02125 
406 1 7.70969 4.66213 -0.552082 
407 1 8.06941 7.1125 -0.46813 
408 1 3.50704 5.2434 -1.22791 
409 1 6.13571 8.65245 -0.784608 
410 1 3.83151 7.71815 -1.14199 
411 10 2.69687 0.236899 3.01483 
412 4 5.92868 0.0648371 3.14197 
413 4 2.6906 -2.77714 2.43987 
414 4 2.39879 0.421253 6.19499 
415 4 2.91855 3.15065 2.32723 
416 9 6.82151 -2.37611 6.09096 
417 5 4.43826 -6.8493 4.90919 
418 3 6.7638 -2.11531 5.09357 
419 3 7.63708 -3.00295 6.19343 
420 3 7.08029 -1.52196 6.61614 
421 8 5.52748 -2.99496 6.62209 
422 2 5.62933 -3.05207 7.71258 
423 2 4.70742 -2.29433 6.41571 
424 6 4.75255 -5.40563 6.85476 
425 5 4.37277 -6.6458 6.30316 
426 7 5.20469 -4.36748 6.03392 
427 6 5.25307 -4.5804 4.65012 
428 5 4.86044 -5.8024 4.08218 
429 1 4.65074 -5.23004 7.92473 
430 1 3.99777 -7.43293 6.952 
431 1 5.55122 -3.76541 3.99395 
432 1 4.11825 -7.78849 4.4708 
433 1 4.85159 -5.89783 2.99839 
434 9 6.67336 2.45422 5.82738 
435 5 6.11484 7.38913 5.99614 
436 3 7.32847 2.74147 6.57675 
437 3 7.15926 2.61271 4.9286 
438 3 6.56382 1.43101 5.92987 
439 8 5.33867 3.17182 5.9068 
440 2 4.7392 2.85141 5.05388 
441 2 4.8176 2.84946 6.81358 
442 6 5.65859 5.3637 4.73349 
443 5 5.9635 6.72712 4.76469 
444 7 5.51375 4.66226 5.93222 
445 6 5.67199 5.31615 7.16277 
446 5 5.95851 6.68574 7.20346 
447 1 5.59697 4.82993 3.78332 
448 1 6.10158 7.26372 3.8305 
449 1 5.62185 4.73058 8.08392 
450 1 6.36785 8.44418 6.01702 
451 1 6.10251 7.17703 8.16164 
452 10 2.98199 0.37025 9.28087 
453 4 6.00168 0.356715 8.82108 
454 4 2.69143 -2.81981 9.41999 
455 4 3.26504 0.105911 12.3929 
456 4 2.56959 3.39163 9.46116 
457 9 6.37568 -2.19957 13.1403 
458 5 6.81379 -7.28188 12.1163 
459 3 7.4092 -2.23222 13.1042 
460 3 6.11812 -2.48816 14.1018 
461 3 6.10206 -1.20306 13.0711 
462 8 5.71478 -3.0665 12.0578 
463 2 4.63059 -3.00109 12.1944 
464 2 5.94157 -2.62214 11.0786 
465 6 6.27908 -5.21444 13.3107 
466 5 6.57276 -6.58979 13.3193 
467 7 6.11655 -4.5349 12.0873 
468 6 6.35164 -5.2272 10.8847 
469 5 6.73638 -6.58338 10.8947 
470 1 6.1184 -4.69416 14.2552 
471 1 6.6535 -7.10724 14.2722 
472 1 6.25974 -4.69407 9.93906 
473 1 7.07309 -8.33702 12.1276 
474 1 6.94546 -7.08966 9.95577 
475 9 5.86128 2.74655 13.4533 
476 5 7.53164 7.19246 11.4689 
477 3 5.74995 3.33078 14.2993 
478 3 6.85165 2.46733 13.4345 
479 3 5.30084 1.90201 13.6435 
480 8 5.43032 3.45729 12.178 
481 2 5.58396 2.77716 11.3293 
482 2 4.35249 3.6327 12.2607 
483 6 7.57994 4.83686 12.07 
484 5 8.25725 6.04509 11.8326 
485 7 6.17473 4.76348 11.9373 
486 6 5.45773 5.90602 11.5694 
487 5 6.13058 7.12184 11.3429 
488 1 8.1516 3.93628 12.3001 
489 1 9.34047 6.07187 11.902 
490 1 4.37812 5.84345 11.4405 
491 1 8.05416 8.12321 11.2726 
492 1 5.55863 7.99898 11.0543 
493 10 9.24927 0.347182 15.7047 
494 4 12.3486 0.398669 15.377 
495 4 8.90885 -2.76958 15.7175 
496 4 9.61615 0.420005 18.877 
497 4 8.62194 3.29482 15.7176 
498 9 12.4154 -2.09293 19.646 
499 5 14.0529 -6.68939 18.2498 
500 3 13.4235 -2.08771 19.8806 
501 3 11.934 -2.49551 20.4682 
502 3 12.1332 -1.09952 19.6129 
503 8 12.0919 -2.83093 18.3391 
504 2 11.0033 -2.90849 18.284 
505 2 12.4297 -2.21047 17.5011 
506 6 12.0587 -5.3532 17.8458 
507 5 12.704 -6.60561 17.8541 
508 7 12.7536 -4.19793 18.2552 
509 6 14.1057 -4.29228 18.6053 
510 5 14.7555 -5.5304 18.6017 
511 1 11.0182 -5.26005 17.5357 
512 1 12.1722 -7.50473 17.5544 
513 1 14.674 -3.3974 18.8595 
514 1 14.5682 -7.64398 18.2571 
515 1 15.8029 -5.5778 18.8675 
516 9 12.2881 2.82486 20.0143 
517 5 11.0828 7.26641 17.5115 
518 3 11.2652 2.73052 20.1385 
519 3 12.6515 3.33646 20.8338 
520 3 12.6782 1.8686 20.0964 
521 8 12.7042 3.46035 18.6914 
522 2 13.801 3.4809 18.6782 
523 2 12.4014 2.78371 17.8801 
524 6 13.0059 5.86 17.9583 
525 5 12.4737 7.07829 17.5055 
526 7 12.1504 4.84832 18.4353 
527 6 10.768 5.06491 18.5013 
528 5 10.2281 6.26733 18.0099 
529 1 14.0734 5.66443 17.8669 
530 1 13.1311 7.84378 17.1047 
531 1 10.0953 4.2609 18.8025 
532 1 10.6557 8.17638 17.1031 
533 1 9.14633 6.37884 17.9621 
534 10 8.99767 0.0569127 22.1446 
535 4 12.0991 0.126881 -3.07225 
536 4 9.15133 -2.89071 21.5964 
537 4 8.70912 -0.126009 -0.340885 
538 4 8.98294 3.12773 22.3326 
539 9 12.9495 -2.1238 -0.259565 
540 5 12.2189 -7.18118 -0.259289 
541 3 13.5419 -2.32612 0.56224 
542 3 12.7999 -1.09915 -0.25136 
543 3 13.5265 -2.30305 -1.09676 
544 8 11.6413 -2.90148 -0.277972 
545 2 11.0645 -2.59528 0.596959 
546 2 11.0692 -2.5856 -1.15337 
547 6 11.7384 -5.11373 0.904159 
548 5 11.9213 -6.50016 0.933766 
549 7 11.8344 -4.39899 -0.298873 
550 6 12.1489 -5.06889 -1.48577 
551 5 12.3617 -6.45766 -1.46405 
552 1 11.525 -4.57182 1.82205 
553 1 11.8396 -7.03536 1.876 
554 1 12.2516 -4.50225 -2.41552 
555 1 12.3771 -8.25568 -0.249579 
556 1 12.6221 -6.97095 -2.38552 
557 9 11.2043 2.4845 -0.236371 
558 5 12.8929 6.95294 1.17265 
559 3 10.2716 2.84776 -0.492349 
560 3 11.2727 2.54211 0.794021 
561 3 11.2081 1.48244 -0.475979 
562 8 12.3457 3.2259 -0.913045 
563 2 13.2513 2.61257 -0.80282 
564 2 12.142 3.32633 -1.98134 
565 6 13.8173 4.94041 0.161299 
566 5 14.0004 6.1353 0.87866 
567 7 12.5425 4.57689 -0.278796 
568 6 11.44 5.39456 -0.00371457 
569 5 11.6048 6.56797 0.754781 
570 1 14.6596 4.27108 -0.0260474 
571 1 14.9924 6.37127 1.25755 
572 1 10.4375 5.07601 -0.292357 
573 1 13.028 7.84652 1.77207 
574 1 10.7296 7.15174 1.03067 
575 10 9.08614 0.0849045 2.89591 
576 4 12.1931 0.198565 2.53121 
577 4 8.84139 -2.91013 3.09555 
578 4 9.44923 0.35165 6.01493 
579 4 8.79124 3.24901 2.41504 
580 9 12.2676 -2.07683 7.12616 
581 5 13.5439 -6.8297 5.91161 
582 3 13.3022 -2.11999 7.12591 
583 3 11.9729 -2.35274 8.08019 
584 3 12.0053 -1.08273 7.0368 
585 8 11.6447 -2.94899 6.03942 
586 2 10.563 -2.99442 6.19387 
587 2 11.7974 -2.44368 5.07503 
588 6 12.1255 -5.23303 7.09504 
589 5 12.7635 -6.49004 7.03372 
590 7 12.2411 -4.34018 6.01257 
591 6 12.9862 -4.70283 4.89431 
592 5 13.6622 -5.92918 4.84165 
593 1 11.5525 -4.94004 7.97722 
594 1 12.6804 -7.18058 7.86968 
595 1 13.0553 -4.01136 4.05892 
596 1 14.0743 -7.7768 5.87896 
597 1 14.2871 -6.15121 3.97554 
598 9 12.3199 2.71677 6.93662 
599 5 11.1439 7.14031 4.63313 
600 3 11.2946 2.60425 6.87139 
601 3 12.4893 3.26078 7.7996 
602 3 12.7123 1.78178 7.13058 
603 8 12.9485 3.34431 5.68802 
604 2 14.0238 3.43615 5.87048 
605 2 12.8321 2.64023 4.85543 
606 6 13.1484 5.79995 5.03997 
607 5 12.5491 7.03377 4.70597 
608 7 12.3451 4.68229 5.30428 
609 6 10.9483 4.79002 5.23376 
610 5 10.3443 6.00817 4.88485 
611 1 14.2321 5.69196 5.06618 
612 1 13.1755 7.89592 4.49441 
613 1 10.3213 3.91749 5.4262 
614 1 10.6738 8.08285 4.37019 
615 1 9.25899 6.05028 4.80177 
616 10 9.06491 0.442617 9.4889 
617 4 12.1284 0.387576 9.79152 
618 4 8.97224 -2.61407 9.19433 
619 4 8.82651 0.434067 12.5653 
620 4 9.14304 3.40545 8.88631 
621 9 12.9986 -1.99261 12.6121 
622 5 11.6768 -6.82218 13.588 
623 3 13.9263 -2.31446 12.2884 
624 3 13.0225 -2.02869 13.6459 
625 3 12.9485 -0.998891 12.3418 
626 8 11.8538 -2.81118 12.0192 
627 2 10.9115 -2.30915 12.2643 
628 2 11.9438 -2.80894 10.9301 
629 6 10.5768 -4.81815 12.7648 
630 5 10.4964 -6.10619 13.322 
631 7 11.821 -4.23362 12.5165 
632 6 13.0067 -4.95015 12.769 
633 5 12.9284 -6.24341 13.3063 
634 1 9.66767 -4.2455 12.5736 
635 1 9.52137 -6.52173 13.559 
636 1 13.9779 -4.49153 12.5786 
637 1 11.6218 -7.80887 14.0357 
638 1 13.8431 -6.77641 13.5452 
639 9 12.9901 2.60015 12.6056 
640 5 12.8197 7.60046 12.2945 
641 3 13.5041 2.71421 13.4971 
642 3 13.6541 2.80137 11.8339 
643 3 12.7826 1.59153 12.5258 
644 8 11.7136 3.4374 12.539 
645 2 11.1644 3.13668 11.6412 
646 2 11.0863 3.1767 13.3985 
647 6 12.056 5.55932 11.2365 
648 5 12.4844 6.8905 11.1304 
649 7 11.9961 4.92183 12.4818 
650 6 12.3459 5.62426 13.6406 
651 5 12.7702 6.95858 13.5475 
652 1 11.8483 4.97919 10.3377 
653 1 12.5619 7.35483 10.1509 
654 1 12.3422 5.10611 14.6014 
655 1 13.1524 8.63156 12.2241 
656 1 13.0811 7.48686 14.4435 
ITEM: TIMESTEP
11000
ITEM: NUMBER OF ATOMS
656
ITEM: BOX BOUNDS pp pp pp
-3.1786545063368568e+00 2.2378654506336975e+01
-4.3779677730546460e+01 4.3779677730546460e+01
-3.1344270754406942e+00 2.2334427075440644e+01
ITEM: ATOMS id type x y z 
1 10 13.0632 0.440648 12.8689 
2 4 16.3001 0.253375 13.1375 
3 4 12.6828 -2.46287 12.798 
4 4 12.9768 0.421059 16.1907 
5 4 12.8658 3.28793 12.6581 
6 9 16.7886 -2.10747 16.1705 
7 5 15.8965 -7.17009 16.7686 
8 3 17.7099 -2.47096 15.87 
9 3 16.8497 -1.98704 17.1958 
10 3 16.7262 -1.15154 15.7821 
11 8 15.6093 -2.985 15.7341 
12 2 14.6928 -2.58446 16.1906 
13 2 15.5107 -2.87029 14.651 
14 6 16.0132 -4.81759 17.4058 
15 5 16.0732 -6.17905 17.7581 
16 7 15.7461 -4.43906 16.0794 
17 6 15.547 -5.41913 15.0831 
18 5 15.6277 -6.77662 15.4364 
19 1 16.0999 -4.03829 18.1713 
20 1 16.2481 -6.44817 18.7969 
21 1 15.288 -5.09794 14.0727 
22 1 15.9489 -8.22588 17.0232 
23 1 15.4861 -7.5498 14.6855 
24 9 16.0624 2.62899 17.1663 
25 5 17.6529 7.08723 15.0082 
26 3 16.302 3.16045 18.0242 
27 3 16.9033 2.08903 16.907 
28 3 15.3483 1.95036 17.4809 
29 8 15.493 3.49848 16.0248 
30 2 15.3732 2.86487 15.1398 
31 2 14.4801 3.7834 16.3186 
32 6 17.519 4.9856 16.2254 
33 5 18.2095 6.15185 15.9073 
34 7 16.2624 4.75113 15.6498 
35 6 15.6818 5.7155 14.7868 
36 5 16.3769 6.89383 14.471 
37 1 18.0174 4.23457 16.8296 
38 1 19.2107 6.30072 16.2991 
39 1 14.7054 5.52478 14.3554 
40 1 18.236 7.96654 14.7534 
41 1 15.9448 7.61805 13.7863 
42 10 13.008 -0.0767094 19.3793 
43 4 16.1196 -0.145284 19.4866 
44 4 12.5128 -3.22208 19.1192 
45 4 13.2376 -0.175885 -3.02174 
46 4 13.1832 3.02879 19.3837 
47 9 16.0924 -2.28797 -2.1729 
48 5 16.0274 -7.21016 -1.49737 
49 3 16.6436 -2.49993 -1.31997 
50 3 15.1049 -2.2327 -1.86236 
51 3 16.3411 -1.32429 -2.4567 
52 8 16.3168 -3.31187 22.1745 
53 2 15.578 -3.10192 21.3956 
54 2 17.3089 -3.13026 21.7395 
55 6 14.9547 -5.29774 -2.54239 
56 5 14.8482 -6.51451 -1.82577 
57 7 16.2132 -4.74176 -2.81104 
58 6 17.3881 -5.41464 -2.4509 
59 5 17.2754 -6.66633 -1.84374 
60 1 14.0461 -4.73076 -2.75487 
61 1 13.8704 -6.86731 -1.50187 
62 1 18.3635 -4.92983 -2.55502 
63 1 15.9784 -8.12279 -0.90819 
64 1 18.1885 -7.13952 -1.5007 
65 9 16.8069 2.27421 -2.40447 
66 5 16.6117 7.31185 -2.39386 
67 3 16.6343 2.23952 -1.38638 
68 3 17.7907 2.58249 -2.52382 
69 3 16.7443 1.3137 -2.78011 
70 8 15.8281 3.1895 -3.1254 
71 2 15.9467 3.0046 21.271 
72 2 14.808 2.88848 -2.87365 
73 6 16.1573 5.49728 21.5387 
74 5 16.5208 6.83082 21.7561 
75 7 16.022 4.6404 -2.83494 
76 6 16.1438 5.11416 -1.5167 
77 5 16.4278 6.45915 -1.29539 
78 1 16.072 5.09864 20.5249 
79 1 16.7212 7.47034 20.9008 
80 1 16.0037 4.41938 -0.687961 
81 1 16.9012 8.34037 -2.21882 
82 1 16.5362 6.81229 -0.274521 
83 10 12.8511 0.0850316 0.366651 
84 4 16.0573 -0.0117648 0.452299 
85 4 12.8659 -3.07065 0.02008 
86 4 12.8597 0.175784 3.59459 
87 4 12.8556 2.96628 0.138758 
88 9 15.9739 -2.24636 4.55612 
89 5 17.9558 -6.71309 3.06022 
90 3 16.9837 -2.05785 4.70397 
91 3 15.6531 -2.69179 5.4299 
92 3 15.4822 -1.33864 4.5089 
93 8 15.6715 -3.09645 3.32279 
94 2 14.59 -3.26616 3.27396 
95 2 15.9315 -2.52491 2.43193 
96 6 15.7888 -5.59938 3.13682 
97 5 16.5389 -6.77731 3.02057 
98 7 16.4518 -4.37229 3.2737 
99 6 17.8531 -4.29284 3.27912 
100 5 18.605 -5.46306 3.15481 
101 1 14.7036 -5.61019 3.09633 
102 1 16.0326 -7.73097 2.89392 
103 1 18.3368 -3.31865 3.35975 
104 1 18.5425 -7.62202 2.94787 
105 1 19.6872 -5.38422 3.0738 
106 9 16.8749 2.43493 3.44285 
107 5 15.7342 7.35012 4.65659 
108 3 17.0274 2.53947 4.45939 
109 3 17.7991 2.61646 3.01499 
110 3 16.6895 1.43377 3.25721 
111 8 15.7651 3.35685 2.90029 
112 2 15.8061 3.30608 1.80673 
113 2 14.8014 2.92196 3.1963 
114 6 16.9798 5.52674 3.59054 
115 5 16.9501 6.77908 4.23237 
116 7 15.7868 4.81497 3.36014 
117 6 14.5727 5.4182 3.73 
118 5 14.5449 6.65704 4.38141 
119 1 17.9319 5.05915 3.34507 
120 1 17.8889 7.26373 4.48 
121 1 13.6524 4.85397 3.57973 
122 1 15.7193 8.28736 5.20624 
123 1 13.5979 7.05413 4.73202 
124 10 13.0934 0.471421 6.8013 
125 4 16.4003 0.582003 6.74627 
126 4 12.9325 -2.67233 6.65341 
127 4 13.4845 0.498107 9.61785 
128 4 12.3477 3.50984 6.51123 
129 9 16.8425 -1.96453 10.2609 
130 5 16.7017 -7.04361 9.91713 
131 3 17.7554 -2.12402 9.81644 
132 3 16.9859 -2.11586 11.2675 
133 3 16.6381 -0.954483 10.1535 
134 8 15.7147 -2.84452 9.69862 
135 2 14.7812 -2.61577 10.2174 
136 2 15.5896 -2.55305 8.65139 
137 6 16.5207 -4.87402 10.9847 
138 5 16.9179 -6.21759 11.037 
139 7 15.993 -4.32173 9.80981 
140 6 15.8631 -5.11844 8.6753 
141 5 16.2052 -6.48183 8.71807 
142 1 16.6046 -4.25153 11.8656 
143 1 17.3288 -6.61076 11.9638 
144 1 15.5278 -4.67198 7.74233 
145 1 16.9732 -8.09338 9.95857 
146 1 16.0802 -7.08779 7.8243 
147 9 16.0504 3.03036 10.5225 
148 5 16.3075 8.01583 10.3694 
149 3 15.0883 3.15693 10.8617 
150 3 16.7055 3.30011 11.2822 
151 3 16.1657 2.00998 10.3806 
152 8 16.2921 3.82141 9.23817 
153 2 17.2235 3.46195 8.77785 
154 2 15.4794 3.57951 8.53617 
155 6 17.5426 6.00583 9.72683 
156 5 17.525 7.35448 10.1346 
157 7 16.3271 5.31498 9.50565 
158 6 15.124 6.00985 9.64707 
159 5 15.101 7.34554 10.0972 
160 1 18.4803 5.45642 9.62251 
161 1 18.4594 7.87402 10.3137 
162 1 14.1804 5.48538 9.48307 
163 1 16.2884 9.04004 10.729 
164 1 14.1476 7.84352 10.2651 
165 10 19.452 0.482111 13.2118 
166 4 -2.92765 0.760494 13.4633 
167 4 19.0435 -2.56466 13.2084 
168 4 19.4157 0.481327 16.514 
169 4 19.4289 3.59722 12.9151 
170 9 -2.99069 -1.85554 17.1666 
171 5 22.2814 -6.87907 16.5492 
172 3 -3.03379 -2.42784 18.0299 
173 3 21.6235 -1.47003 17.0088 
174 3 -2.34841 -1.07707 17.3866 
175 8 -2.46232 -2.66815 16.0021 
176 2 -2.89735 -2.27177 15.08 
177 2 -1.3827 -2.48187 15.9499 
178 6 21.5074 -4.60497 16.1691 
179 5 21.2242 -5.95675 16.4512 
180 7 -2.73339 -4.15166 16.0893 
181 6 -1.6751 -5.05986 16.2365 
182 5 -1.95702 -6.41924 16.4465 
183 1 20.6792 -3.90159 16.0659 
184 1 20.1877 -6.26887 16.5599 
185 1 -0.653443 -4.68355 16.2087 
186 1 22.0813 -7.92837 16.7394 
187 1 -1.13215 -7.11181 16.5703 
188 9 -2.41875 2.98804 16.4996 
189 5 -2.76486 7.97726 16.3153 
190 3 -1.73344 3.15673 17.2591 
191 3 -1.92354 3.17574 15.608 
192 3 -2.61499 1.97224 16.4977 
193 8 21.8481 3.79422 16.6548 
194 2 21.1465 3.47851 15.871 
195 2 21.4057 3.53259 17.6185 
196 6 22.252 5.84131 15.3007 
197 5 -2.96176 7.19819 15.1654 
198 7 22.0907 5.26851 16.5587 
199 6 22.1939 6.06573 17.7071 
200 5 -3.01099 7.41858 17.5914 
201 1 22.1468 5.21947 14.4082 
202 1 -2.81185 7.61007 14.1721 
203 1 22.0518 5.60292 18.6827 
204 1 -2.46883 9.01796 16.2294 
205 1 -2.88709 8.02316 18.4848 
206 10 19.5883 0.212431 19.5482 
207 4 -2.93318 0.57882 19.8224 
208 4 19.8184 -2.77669 19.2344 
209 4 19.4829 -0.0180517 -2.76677 
210 4 18.9598 3.29613 19.8915 
211 9 -2.17301 -1.91214 -2.66604 
212 5 -3.14684 -6.88636 -1.93256 
213 3 -1.30013 -2.02311 -3.21153 
214 3 -1.92261 -2.04587 -1.6716 
215 3 -2.48281 -0.936413 -2.77937 
216 8 -3.21352 -2.86753 -3.16731 
217 2 21.3578 -2.58982 -2.79735 
218 2 -3.18807 -2.77169 21.2158 
219 6 -2.90562 -4.5603 -1.38071 
220 5 -3.04431 -5.87557 -0.954737 
221 7 -2.95822 -4.27248 -2.75861 
222 6 -3.05861 -5.27737 21.7433 
223 5 -3.0916 -6.60678 22.1637 
224 1 -2.91219 -3.74149 -0.662799 
225 1 -3.12117 -6.1097 0.102325 
226 1 -3.16331 -5.00515 20.6901 
227 1 22.291 -7.91112 -1.59603 
228 1 -3.19294 -7.40686 21.4373 
229 9 -2.34972 2.57519 -2.49104 
230 5 -2.78569 7.42437 -1.02047 
231 3 -2.22786 2.62237 -1.46347 
232 3 -1.42185 2.74757 -2.92356 
233 3 -2.61812 1.60905 -2.7358 
234 8 22.1765 3.57961 -2.98247 
235 2 22.2571 3.63902 21.3971 
236 2 21.1794 3.16869 -2.75724 
237 6 -1.86551 5.43392 -2.08008 
238 5 -1.67421 6.6466 -1.369 
239 7 -3.16293 4.93369 -2.30159 
240 6 21.3031 5.65368 -1.79587 
241 5 21.476 6.92605 -1.23248 
242 1 -0.993146 4.8711 -2.41545 
243 1 -0.662976 6.97056 -1.13208 
244 1 20.2985 5.23843 -1.88444 
245 1 -2.66123 8.38343 -0.529041 
246 1 20.6143 7.50371 -0.912689 
247 10 19.4868 -0.0927021 0.405333 
248 4 -2.85727 -0.023355 0.464362 
249 4 19.4351 -3.09244 0.252186 
250 4 19.6034 0.0594034 3.51945 
251 4 19.2186 2.86048 0.447533 
252 9 -2.89694 -1.85177 4.20519 
253 5 -1.27259 -6.32831 3.59065 
254 3 -1.93287 -1.97915 3.86041 
255 3 -2.8158 -1.79342 5.23394 
256 3 -3.19464 -0.921698 3.87018 
257 8 21.7196 -2.95765 3.73658 
258 2 20.8263 -2.97316 4.37017 
259 2 21.4261 -2.65799 2.73601 
260 6 -3.01516 -5.10176 4.75484 
261 5 -2.05478 -6.1188 4.73819 
262 7 -3.17945 -4.3075 3.62035 
263 6 -2.48675 -4.58962 2.4389 
264 5 -1.51463 -5.60972 2.41252 
265 1 22.0627 -4.82071 5.69496 
266 1 -1.8494 -6.6667 5.65237 
267 1 -2.58536 -3.92034 1.58471 
268 1 -0.448774 -7.03162 3.61433 
269 1 -0.876613 -5.7307 1.53872 
270 9 -3.06864 2.60579 4.20553 
271 5 22.2674 7.56929 2.64483 
272 3 21.5109 2.27613 4.26785 
273 3 -2.94494 3.26447 4.99257 
274 3 -2.45748 1.80472 4.42305 
275 8 -2.72804 3.24696 2.86128 
276 2 -1.71023 2.94207 2.62117 
277 2 22.1695 2.79721 2.11723 