ITEM: TIMESTEP
110000
ITEM: NUMBER OF ATOMS
656
ITEM: BOX BOUNDS pp pp pp
-2.8592967216946441e+00 2.2059296721693521e+01
-4.3779677730546460e+01 4.3779677730546460e+01
-2.8100732784061915e+00 2.2010073278404860e+01
ITEM: ATOMS id type x y z 
1 10 12.9303 0.358784 13.1491 
2 4 16.0379 -0.0830363 13.1095 
3 4 12.6714 -2.84887 13.2479 
4 4 12.6225 0.240128 16.2595 
5 4 13.4647 3.27846 12.915 
6 9 15.2129 -2.20546 16.1433 
7 5 15.239 -7.15853 15.662 
8 3 14.7947 -2.34404 15.2394 
9 3 15.4652 -1.24985 16.1946 
10 3 14.4554 -2.36878 16.8422 
11 8 16.3019 -3.14228 16.4907 
12 2 17.2337 -2.92621 15.949 
13 2 16.4562 -2.94016 17.4921 
14 6 15.8781 -4.98285 14.8237 
15 5 15.4341 -6.25872 14.5701 
16 7 16.0147 -4.56516 16.149 
17 6 15.6817 -5.35545 17.2198 
18 5 15.2953 -6.69769 17.0029 
19 1 16.1644 -4.30762 14.0445 
20 1 15.4352 -6.56815 13.5185 
21 1 15.6923 -4.97733 18.2142 
22 1 14.9392 -8.17749 15.4337 
23 1 14.9194 -7.22834 17.8987 
24 9 16.5497 2.6565 15.3764 
25 5 16.122 7.73441 16.4471 
26 3 17.5338 2.94149 15.2744 
27 3 16.1729 2.56282 14.4397 
28 3 16.6144 1.69622 15.6927 
29 8 15.6582 3.44408 16.3115 
30 2 14.5895 3.21769 16.1614 
31 2 15.8098 3.18973 17.424 
32 6 15.9367 5.58591 17.5751 
33 5 16.0383 6.99711 17.6738 
34 7 15.8622 4.92758 16.3522 
35 6 15.9579 5.69746 15.1445 
36 5 16.0241 7.09487 15.1686 
37 1 16.0046 5.0351 18.4205 
38 1 16.2494 7.44371 18.6137 
39 1 15.9507 5.15041 14.2335 
40 1 16.2869 8.84024 16.4968 
41 1 16.1415 7.71689 14.2203 
42 10 12.7543 0.349243 19.2249 
43 4 15.8191 0.0589471 18.8584 
44 4 12.9446 -2.85302 19.471 
45 4 12.7383 0.52797 -2.24269 
46 4 12.7779 3.38366 19.386 
47 9 15.7917 -2.26707 21.7864 
48 5 15.7318 -7.40795 -2.07157 
49 3 15.7044 -1.2787 -2.72941 
50 3 14.9332 -2.60515 21.3881 
51 3 16.5001 -2.15233 21.075 
52 8 16.3115 -3.06442 -1.85656 
53 2 17.3996 -2.89622 -1.80705 
54 2 15.8626 -2.82589 -0.891098 
55 6 14.8135 -5.12444 -1.92237 
56 5 14.6102 -6.54378 -1.96877 
57 7 16.1393 -4.63485 -1.92959 
58 6 17.2578 -5.47849 -1.97812 
59 5 17.0762 -6.92719 -2.00811 
60 1 13.9187 -4.43292 -1.77509 
61 1 13.5427 -6.86586 -1.8388 
62 1 18.2717 -5.06148 -2.07847 
63 1 15.6453 -8.43802 -2.1451 
64 1 17.9931 -7.55207 -1.88094 
65 9 15.9595 2.80346 -1.50106 
66 5 16.8963 7.71119 -2.70926 
67 3 16.9485 2.91 -1.44187 
68 3 15.9737 1.79253 -1.68843 
69 3 15.711 3.12834 -0.50257 
70 8 15.48 3.68046 -2.69114 
71 2 15.8887 3.28132 21.2957 
72 2 14.3304 3.6229 -2.66581 
73 6 17.2751 5.36073 -2.51558 
74 5 17.7906 6.64773 -2.62809 
75 7 15.9152 5.12346 -2.71968 
76 6 15.047 6.21027 21.9184 
77 5 15.5285 7.47736 21.9761 
78 1 17.9718 4.48033 -2.47586 
79 1 18.8522 6.88068 -2.42158 
80 1 13.8981 6.17635 21.723 
81 1 17.3778 8.70775 -2.65034 
82 1 14.896 8.30394 21.8684 
83 10 12.8088 0.679602 0.629368 
84 4 15.9911 0.132731 0.833019 
85 4 12.736 -2.63505 0.743955 
86 4 12.5526 0.408576 3.70596 
87 4 13.0085 3.71966 0.82324 
88 9 15.0722 -2.35163 3.45127 
89 5 16.5711 -7.34265 3.7989 
90 3 14.2014 -2.90249 3.69577 
91 3 15.083 -2.20655 2.47963 
92 3 14.8698 -1.4562 3.90749 
93 8 16.2778 -3.04561 4.03953 
94 2 17.2014 -2.69256 3.50078 
95 2 16.4271 -2.63737 5.09925 
96 6 16.2092 -5.34013 5.1687 
97 5 16.3455 -6.73686 5.05486 
98 7 16.299 -4.56572 3.97723 
99 6 16.5797 -5.24248 2.69967 
100 5 16.8221 -6.62674 2.67441 
101 1 16.0438 -4.78755 6.09783 
102 1 16.0928 -7.30779 5.98787 
103 1 16.8625 -4.67216 1.78538 
104 1 16.5497 -8.37032 3.70202 
105 1 16.9015 -7.16936 1.74481 
106 9 16.8421 3.02767 3.80507 
107 5 16.5206 8.02692 4.1953 
108 3 17.0922 2.08496 4.22098 
109 3 17.6899 3.55815 3.93533 
110 3 16.7314 2.86014 2.81887 
111 8 15.7201 3.79901 4.44405 
112 2 14.8451 3.37596 4.00227 
113 2 15.7533 3.51417 5.43036 
114 6 16.7282 5.94254 5.36249 
115 5 16.9528 7.25571 5.27261 
116 7 15.935 5.30832 4.38445 
117 6 15.5361 5.99866 3.26393 
118 5 15.8497 7.3612 3.08384 
119 1 17.2269 5.46543 6.20628 
120 1 17.5967 7.73106 5.96656 
121 1 14.9818 5.4342 2.53256 
122 1 16.6944 9.10405 4.14604 
123 1 15.488 7.8781 2.1944 
124 10 12.9001 0.230579 6.68097 
125 4 15.9926 0.263775 6.4953 
126 4 13.1388 -2.77912 6.46285 
127 4 13.059 0.120166 10.0064 
128 4 12.3101 3.32634 6.84534 
129 9 15.7901 -2.12689 9.26601 
130 5 15.0436 -7.33576 9.33848 
131 3 15.7143 -1.16702 9.66961 
132 3 14.9457 -2.23431 8.7313 
133 3 16.6396 -2.09484 8.6585 
134 8 15.9104 -3.17935 10.3918 
135 2 16.9489 -3.04711 10.8159 
136 2 15.2816 -2.88488 11.2238 
137 6 14.2415 -5.09325 9.94972 
138 5 13.9343 -6.40993 9.56861 
139 7 15.5842 -4.63393 10.0365 
140 6 16.6549 -5.52495 9.78334 
141 5 16.3934 -6.9035 9.44132 
142 1 13.4451 -4.4274 10.0967 
143 1 12.8557 -6.70172 9.5875 
144 1 17.6078 -5.21078 9.83722 
145 1 14.813 -8.3801 8.96093 
146 1 17.2247 -7.53258 9.26014 
147 9 16.24 2.49425 10.4317 
148 5 16.6922 7.33766 10.0799 
149 3 15.9045 3.05435 11.2726 
150 3 17.2587 2.30955 10.4792 
151 3 15.7599 1.54463 10.3845 
152 8 15.8791 3.26464 9.1284 
153 2 16.4332 2.93342 8.30846 
154 2 14.8423 2.93008 8.99701 
155 6 17.4306 5.15523 9.57915 
156 5 17.7528 6.44447 9.97786 
157 7 16.1868 4.7324 9.41595 
158 6 15.1359 5.67232 9.31461 
159 5 15.4049 7.00627 9.70217 
160 1 18.1869 4.32575 9.49071 
161 1 18.7129 6.78605 10.2807 
162 1 14.1112 5.25775 9.06005 
163 1 16.8431 8.34275 10.4879 
164 1 14.6118 7.77857 9.9328 
165 10 19.1363 -0.146154 12.9509 
166 4 -2.70616 0.256822 12.8996 
167 4 19.4624 -3.25151 12.9188 
168 4 19.3368 0.0752893 16.267 
169 4 18.8846 3.25933 12.8813 
170 9 -2.64835 -2.1503 15.6644 
171 5 -1.87542 -6.85235 14.9814 
172 3 21.7461 -2.22264 14.8343 
173 3 -1.63424 -2.08941 15.5191 
174 3 21.9634 -1.23151 15.9352 
175 8 21.8236 -3.11933 16.7098 
176 2 -2.82268 -2.75577 17.7255 
177 2 20.7189 -3.07202 16.7438 
178 6 21.3059 -5.54587 16.134 
179 5 21.7409 -6.75 15.4504 
180 7 -2.67613 -4.53849 16.344 
181 6 -1.32523 -4.78625 16.1248 
182 5 -0.91984 -5.88041 15.3543 
183 1 20.2211 -5.37468 16.2504 
184 1 21.0533 -7.56626 15.2435 
185 1 -0.567271 -4.07707 16.4305 
186 1 -1.51978 -7.71387 14.5484 
187 1 0.0899044 -6.12769 15.108 
188 9 -2.7196 2.46951 16.5005 
189 5 -2.6031 7.31022 17.3724 
190 3 -2.01924 2.55396 17.266 
191 3 -2.70061 1.45496 16.0938 
192 3 21.2802 2.72144 16.971 
193 8 -2.34363 3.51505 15.4024 
194 2 -1.2879 3.25444 15.0138 
195 2 21.9489 3.44654 14.5007 
196 6 21.2256 5.55864 16.1933 
197 5 21.1936 6.74878 16.9357 
198 7 -2.46934 4.95143 15.8874 
199 6 -1.26166 5.63151 16.2731 
200 5 -1.3495 6.72174 17.0987 
201 1 20.3332 5.05508 15.8776 
202 1 20.1386 7.10401 17.2324 
203 1 -0.308167 5.0387 16.0688 
204 1 -2.7164 8.3868 17.7413 
205 1 -0.408331 7.21965 17.3885 
206 10 18.9921 0.368692 19.2537 
207 4 -2.76629 0.328829 19.2765 
208 4 19.0397 -2.74213 19.6768 
209 4 18.8157 0.579294 -2.4144 
210 4 19.3307 3.5123 19.0377 
211 9 21.7896 -2.25301 -2.19812 
212 5 -2.35575 -7.36148 22.0044 
213 3 20.842 -2.53762 -2.29041 
214 3 21.722 -1.21774 -2.49046 
215 3 22.0329 -2.14915 -1.21592 
216 8 -2.12058 -3.04065 21.7584 
217 2 -2.25656 -2.70418 20.7365 
218 2 -1.11428 -2.6584 21.8659 
219 6 -2.5727 -5.20609 -1.79441 
220 5 -2.65306 -6.62143 -1.66752 
221 7 -2.30398 -4.57919 21.8055 
222 6 -2.00993 -5.34954 20.7099 
223 5 -1.97769 -6.73266 20.8043 
224 1 -2.8039 -4.62084 -0.925625 
225 1 21.875 -7.03601 -0.717974 
226 1 -1.75466 -4.75797 19.7932 
227 1 -2.28819 -8.46231 -2.74033 
228 1 -1.62547 -7.28725 19.932 
229 9 -2.41109 2.84132 -2.57123 
230 5 -2.27805 7.85422 -1.83727 
231 3 -2.38005 3.01318 21.2603 
232 3 -2.56297 1.84422 -2.38742 
233 3 -1.47803 2.98617 -2.2141 
234 8 21.5146 3.67696 -1.8442 
235 2 20.5064 3.50216 -2.29315 
236 2 21.5307 3.43622 -0.824389 
237 6 21.9334 5.8069 21.7302 
238 5 -2.66842 7.22433 21.7903 
239 7 21.8727 5.14689 -1.85962 
240 6 -2.73796 5.79406 -0.636621 
241 5 -2.3201 7.11787 -0.657135 
242 1 21.8629 5.26988 20.8176 
243 1 -2.65112 7.88056 20.9138 
244 1 -2.8347 5.27597 0.311572 
245 1 -1.9633 8.86274 -1.84494 
246 1 -2.12021 7.54095 0.297915 
247 10 19.0779 0.29 0.643946 
248 4 22.0139 0.539643 0.53289 
249 4 19.6776 -2.97711 0.624559 
250 4 19.4232 0.0183324 3.63802 
251 4 18.6171 3.31124 0.856683 
252 9 -2.6548 -2.68116 3.00851 
253 5 22.0332 -7.72703 4.59316 
254 3 -2.78074 -3.1877 2.09255 
255 3 -1.61085 -2.66913 3.08037 
256 3 21.93 -1.70151 2.78546 
257 8 21.5579 -3.33515 4.24503 
258 2 21.9781 -2.86902 5.19322 
259 2 20.5622 -3.17354 4.0016 
260 6 20.5817 -5.71692 4.37635 
261 5 20.7695 -7.14892 4.50768 
262 7 21.7099 -4.87593 4.23776 
263 6 -1.93193 -5.44709 4.2631 
264 5 -1.77723 -6.86351 4.3971 
265 1 19.6052 -5.29278 4.40487 
266 1 19.8008 -7.67633 4.56991 
267 1 -1.11551 -4.69043 4.1569 
268 1 -2.69856 -8.76287 4.89933 
269 1 -0.732925 -7.22667 4.34518 
270 9 -2.40259 2.56847 4.31086 
271 5 -2.45894 7.69285 4.06609 
272 3 -2.79577 2.81204 5.21346 
273 3 -1.40625 2.42127 4.45773 
274 3 -2.66966 1.66624 4.15556 
275 8 -2.71863 3.55003 3.20964 
276 2 -2.09596 3.39659 2.29665 
277 2 21.1501 3.37382 2.86974 
278 6 -1.48075 5.47177 3.96002 
279 5 -1.34796 6.8268 4.21789 
280 7 -2.70278 4.94591 3.54533 
281 6 21.1137 5.78228 3.44501 
282 5 21.246 7.17275 3.6985 
283 1 -0.584769 4.73243 3.88286 
284 1 -0.393751 7.28424 4.48524 
285 1 20.1771 5.32117 3.07638 
286 1 -2.39024 8.73142 4.38817 
287 1 20.3737 7.87422 3.65292 
288 10 19.2732 -0.0702195 6.75186 
289 4 -2.42499 -0.09904 6.88348 
290 4 19.003 -3.1545 7.01578 
291 4 18.8911 -0.0570958 9.74832 
292 4 19.4056 3.06691 6.42192 
293 9 21.5707 -2.48256 9.72451 
294 5 -2.39797 -7.48391 9.75504 
295 3 21.6097 -1.49629 10.095 
296 3 20.6215 -2.91717 9.95483 
297 3 21.5648 -2.41677 8.64861 
298 8 -2.23818 -3.21211 10.3915 
299 2 -1.23235 -2.91679 10.0221 
300 2 -2.21027 -3.0134 11.4818 
301 6 -2.55143 -5.23354 8.90484 
302 5 -2.59071 -6.57517 8.69008 
303 7 -2.39012 -4.70069 10.1696 
304 6 -2.18819 -5.57886 11.2094 
305 5 -2.15525 -6.94924 11.0483 
306 1 -2.67915 -4.55691 8.09825 
307 1 -2.65393 -6.89418 7.6596 
308 1 -1.88213 -5.16045 12.1884 
309 1 -2.38834 -8.53936 9.51108 
310 1 -2.08493 -7.56765 11.9735 
311 9 -2.30934 2.50587 9.67636 
312 5 -2.11551 7.54262 9.30341 
313 3 -1.31405 2.90475 9.86434 
314 3 -2.40347 2.20652 8.66149 
315 3 -2.35367 1.67725 10.3108 
316 8 21.6243 3.53103 10.0627 
317 2 20.5412 3.32431 9.79191 
318 2 21.6364 3.41565 11.1837 
319 6 -2.67172 5.39805 8.45712 
320 5 -2.18735 6.68948 8.20854 
321 7 21.8777 4.9898 9.72768 
322 6 22.0209 5.86257 10.7902 
323 5 -2.37469 7.15702 10.6414 
324 1 -2.57068 4.60677 7.68089 
325 1 -1.86234 6.88821 7.19796 
326 1 21.7381 5.47829 11.8021 
327 1 -1.80659 8.61423 9.14473 
328 1 -2.27203 7.82243 11.4481 
329 10 0.615304 0.32421 13.1098 
330 4 3.77342 0.561735 13.3483 
331 4 0.782135 -2.79677 13.2804 
332 4 0.299343 0.317328 16.101 
333 4 0.588117 3.5274 12.4261 
334 9 2.97119 -2.0193 16.2894 
335 5 2.99353 -6.98568 16.2882 
336 3 3.10655 -1.03723 16.0677 
337 3 3.02159 -2.034 17.2761 
338 3 2.022 -2.37929 16.1703 
339 8 4.00001 -2.89201 15.5826 
340 2 3.90259 -2.67207 14.5431 
341 2 5.00898 -2.71689 15.9219 
342 6 3.63155 -5.19148 14.7626 
343 5 3.33871 -6.53059 14.9918 
344 7 3.70267 -4.31959 15.8768 
345 6 3.51466 -4.75133 17.1699 
346 5 3.08659 -6.1017 17.3791 
347 1 3.88698 -4.86219 13.7403 
348 1 3.35199 -7.24423 14.1518 
349 1 3.72824 -4.09574 18.0591 
350 1 2.69601 -7.98636 16.3859 
351 1 2.90762 -6.39411 18.394 
352 9 4.36108 3.13655 16.2047 
353 5 2.95891 7.98321 16.0268 
354 3 4.56029 2.20992 16.5157 
355 3 5.00417 3.80953 16.6445 
356 3 4.66735 3.10744 15.1884 
357 8 2.95969 3.65633 16.1448 
358 2 2.3759 3.28598 15.3451 
359 2 2.50065 3.34953 16.9989 
360 6 3.23405 5.847 14.8574 
361 5 3.16907 7.22227 14.818 
362 7 3.06742 5.16234 16.0679 
363 6 2.80719 5.91959 17.2004 
364 5 2.77222 7.28716 17.2389 
365 1 3.65644 5.35529 14.0589 
366 1 3.32699 7.77085 13.8927 
367 1 2.81237 5.41446 18.1496 
368 1 2.97915 9.05438 16.1111 
369 1 2.61485 7.75426 18.2003 
370 10 0.343332 0.440775 19.1617 
371 4 3.53422 0.38964 18.9095 
372 4 0.865708 -2.57225 19.23 
373 4 0.473802 0.460515 -2.46316 
374 4 0.118951 3.19501 19.401 
375 9 3.8704 -2.15822 21.8062 
376 5 4.06956 -7.15938 21.2081 
377 3 3.5538 -2.27332 20.8199 
378 3 4.94121 -2.29119 21.8239 
379 3 3.62762 -1.14194 21.9879 
380 8 3.20532 -3.1335 -2.08538 
381 2 3.44705 -2.85962 -1.09878 
382 2 2.10088 -2.94604 -2.11557 
383 6 4.80228 -5.14312 -2.5051 
384 5 5.07197 -6.40193 21.8167 
385 7 3.50215 -4.62235 -2.44493 
386 6 2.4764 -5.43842 21.9197 
387 5 2.74962 -6.69597 21.2936 
388 1 5.65332 -4.47233 -2.27505 
389 1 6.01631 -6.73634 21.6376 
390 1 1.52687 -5.01816 21.9538 
391 1 4.34112 -8.13136 20.7132 
392 1 1.93214 -7.3606 20.9913 
393 9 3.46577 2.66944 -2.00487 
394 5 2.90495 7.55449 -1.70915 
395 3 3.90268 2.54755 -1.07985 
396 3 3.49731 1.71237 -2.43262 
397 3 2.4937 2.90238 -1.86254 
398 8 4.0845 3.62553 21.8672 
399 2 5.12852 3.40814 21.9509 
400 2 3.75449 3.34589 20.8817 
401 6 4.70729 6.0357 -2.42724 
402 5 4.33028 7.26062 -1.90923 
403 7 3.74717 5.05257 -2.54874 
404 6 2.3983 5.3335 -2.49641 
405 5 1.91446 6.57058 -1.98613 
406 1 5.76851 5.7775 -2.62965 
407 1 5.06955 8.00353 -1.86206 
408 1 1.66566 4.51174 -2.66306 
409 1 2.59357 8.5536 -1.38307 
410 1 0.835865 6.85727 -1.89605 
411 10 0.262952 0.101494 0.56372 
412 4 3.55589 0.0193797 0.526897 
413 4 -0.0380515 -2.84508 0.444721 
414 4 0.475368 0.243094 3.62246 
415 4 0.646317 3.40051 0.47531 
416 9 4.40672 -2.21105 3.6192 
417 5 4.19355 -7.36006 4.14983 
418 3 4.60224 -2.29534 4.60177 
419 3 4.34414 -1.15434 3.44062 
420 3 5.23572 -2.54129 3.175 
421 8 3.2621 -3.15099 3.3304 
422 2 2.44836 -2.64967 3.78653 
423 2 3.02714 -3.13978 2.25045 
424 6 3.56923 -5.17096 4.97881 
425 5 3.79033 -6.52398 5.13882 
426 7 3.53615 -4.62684 3.67136 
427 6 4.0576 -5.44016 2.67933 
428 5 4.4118 -6.78769 2.92061 
429 1 3.3921 -4.57024 5.8526 
430 1 3.74773 -6.99164 6.12698 
431 1 4.32359 -5.00054 1.77686 
432 1 4.23977 -8.45409 4.21737 
433 1 4.75317 -7.45928 2.13424 
434 9 3.33211 2.67064 3.46051 
435 5 2.33444 7.50149 3.72392 
436 3 3.53527 1.71219 3.75664 
437 3 3.37577 2.85529 2.4368 
438 3 2.27823 2.7418 3.65713 
439 8 4.22875 3.73711 4.18474 
440 2 4.18433 3.53147 5.26817 
441 2 5.27993 3.64508 3.979 
442 6 3.19641 5.75578 5.11496 
443 5 2.46349 6.9469 4.96964 
444 7 3.62969 5.09463 3.94914 
445 6 3.41458 5.60071 2.65987 
446 5 2.79292 6.85652 2.54304 
447 1 3.52728 5.39465 6.08818 
448 1 2.27716 7.5222 5.84326 
449 1 3.60645 5.05048 1.69306 
450 1 1.76178 8.47088 3.6904 
451 1 2.52119 7.36914 1.62725 
452 10 0.693881 -0.235665 6.95217 
453 4 3.62243 0.228994 6.58673 
454 4 0.418086 -3.2211 6.94412 
455 4 0.786374 0.109925 9.94462 
456 4 0.4847 3.14003 6.81587 
457 9 3.74267 -2.20762 10.7921 
458 5 4.23196 -7.36554 10.5298 
459 3 3.36039 -1.19739 10.5917 
460 3 4.75782 -2.12175 10.7184 
461 3 3.5155 -2.38516 11.8112 
462 8 3.15249 -3.19905 9.77304 
463 2 2.06411 -3.0749 9.82392 
464 2 3.42224 -2.96789 8.73495 
465 6 4.86841 -5.05042 10.3405 
466 5 5.19492 -6.39126 10.5606 
467 7 3.51772 -4.63037 10.1524 
468 6 2.49193 -5.64155 10.0477 
469 5 2.87207 -6.9656 10.3664 
470 1 5.56603 -4.2459 10.2787 
471 1 6.17609 -6.6362 10.6284 
472 1 1.42587 -5.32205 10.0397 
473 1 4.61017 -8.34691 10.6456 
474 1 2.05136 -7.68062 10.4548 
475 9 3.14645 3.02911 9.43888 
476 5 3.95054 8.04143 9.4097 
477 3 3.44955 3.03451 8.45249 
478 3 2.1555 3.31002 9.44367 
479 3 3.14375 2.03717 9.59677 
480 8 3.94442 3.83371 10.3864 
481 2 3.67643 3.64869 11.4947 
482 2 4.99907 3.48843 10.1697 
483 6 5.06798 5.90713 9.79455 
484 5 5.12993 7.29103 9.45915 
485 7 3.8341 5.29186 9.98335 
486 6 2.69643 6.08559 9.88998 
487 5 2.78524 7.44557 9.65676 
488 1 5.97913 5.31482 9.97669 
489 1 6.09542 7.81275 9.33473 
490 1 1.68845 5.60728 9.95032 
491 1 4.12099 9.07987 9.13104 
492 1 1.84321 8.00647 9.57589 
493 10 6.76908 0.514581 13.1141 
494 4 9.73632 0.261233 13.2464 
495 4 7.02394 -2.7593 13.0095 
496 4 6.75156 0.392672 16.1819 
497 4 6.85477 3.70976 13.3678 
498 9 9.42802 -2.17987 15.8651 
499 5 9.83141 -7.152 15.4645 
500 3 9.58211 -2.4066 14.8355 
501 3 9.62938 -1.14926 15.94 
502 3 8.42092 -2.20666 16.1571 
503 8 10.2461 -3.05298 16.8002 
504 2 11.3045 -2.83478 16.5017 
505 2 9.97981 -2.86802 17.8909 
506 6 11.2835 -5.36656 16.2148 
507 5 11.1204 -6.71988 15.8202 
508 7 10.16 -4.56047 16.4699 
509 6 8.88639 -5.06531 16.175 
510 5 8.72211 -6.35978 15.6794 
511 1 12.3159 -5.09902 16.2326 
512 1 12.0003 -7.32716 15.6191 
513 1 8.0249 -4.3694 16.4284 
514 1 9.77646 -8.15957 15.0681 
515 1 7.78875 -6.65619 15.439 
516 9 9.66835 2.64669 16.6929 
517 5 10.4641 7.64426 16.7798 
518 3 9.8226 2.80624 17.6737 
519 3 9.8196 1.66028 16.3338 
520 3 8.68925 2.90998 16.4659 
521 8 10.5713 3.46451 15.7991 
522 2 11.6192 3.23266 16.116 
523 2 10.3962 3.21078 14.7793 
524 6 9.20391 5.66972 16.197 
525 5 9.27312 7.03322 16.5255 
526 7 10.4551 4.89173 16.1064 
527 6 11.7089 5.57468 16.2952 
528 5 11.6703 6.99901 16.5195 
529 1 8.18585 5.31275 16.089 
530 1 8.34779 7.55237 16.8482 
531 1 12.6398 4.99804 16.2416 
532 1 10.3577 8.67133 17.0259 
533 1 12.6194 7.49905 16.5113 
534 10 6.69036 0.270442 19.4888 
535 4 9.68897 0.275447 19.3992 
536 4 6.44529 -2.87771 19.153 
537 4 6.62135 0.281054 -2.38461 
538 4 6.87029 3.39522 18.977 
539 9 10.12 -2.15036 -2.1177 
540 5 10.504 -7.05247 -2.46732 
541 3 10.0009 -1.20151 -2.47103 
542 3 11.1075 -2.45952 -2.23818 
543 3 9.93075 -2.15612 -1.1382 
544 8 9.21174 -3.034 21.9016 
545 2 8.20019 -2.87762 -2.64897 
546 2 9.36632 -2.81713 20.8287 
547 6 9.80559 -4.98832 -1.45297 
548 5 10.3349 -6.25323 -1.28103 
549 7 9.56122 -4.48464 -2.69439 
550 6 9.86403 -5.20851 20.9909 
551 5 10.3028 -6.48394 21.083 
552 1 9.60748 -4.43149 -0.503426 
553 1 10.5238 -6.74692 -0.338296 
554 1 9.85535 -4.6053 20.0835 
555 1 10.9631 -8.06313 -2.38427 
556 1 10.5025 -7.06738 20.2106 
557 9 10.1718 3.24613 21.7408 
558 5 9.16178 8.06469 -1.77174 
559 3 9.94958 3.34365 20.6936 
560 3 10.2906 2.27072 -2.80156 
561 3 11.1348 3.62847 21.8672 
562 8 9.0453 3.78799 -2.13436 
563 2 8.05477 3.45193 -2.44913 
564 2 9.23628 3.37724 -1.13456 
565 6 9.21684 6.07255 21.5991 
566 5 9.22801 7.4803 21.7368 
567 7 9.25211 5.30282 -2.02818 
568 6 9.3506 5.85594 -0.774903 
569 5 9.31412 7.24177 -0.618521 
570 1 9.23236 5.74941 20.5997 
571 1 9.14162 8.08338 20.7941 
572 1 9.42342 5.20189 0.12783 
573 1 9.11237 9.14519 -1.62744 
574 1 9.53831 7.69817 0.333301 
575 10 6.72108 0.255684 0.658644 
576 4 9.79529 0.61716 0.584996 
577 4 6.79077 -2.8495 0.619012 
578 4 6.88765 0.194713 3.75444 
579 4 6.37873 3.25669 0.896472 
580 9 9.80496 -2.34838 2.96911 
581 5 10.0416 -7.27664 2.728 
582 3 9.70384 -2.63347 1.96731 
583 3 10.8746 -2.25891 3.23765 
584 3 9.44304 -1.37146 3.07761 
585 8 9.21822 -3.3287 4.05575 
586 2 9.52832 -3.01847 5.14072 
587 2 8.1371 -3.11029 4.04273 
588 6 10.8216 -5.20047 3.61156 
589 5 11.1573 -6.4726 3.00069 
590 7 9.49983 -4.75415 3.74808 
591 6 8.46381 -5.60858 3.36086 
592 5 8.68498 -6.87822 2.83409 
593 1 11.677 -4.69711 3.99067 
594 1 12.207 -6.8893 3.08276 
595 1 7.41362 -5.21497 3.35036 
596 1 10.2562 -8.29452 2.31431 
597 1 7.87403 -7.55047 2.50352 
598 9 9.42017 2.86144 4.27809 
599 5 8.73967 7.9617 4.30767 
600 3 9.67217 2.68405 5.22335 
601 3 9.73267 1.93501 3.87126 
602 3 8.45036 2.90974 4.35456 
603 8 10.0118 3.90738 3.52453 
604 2 11.1251 3.86806 3.66292 
605 2 9.8403 3.7315 2.40402 
606 6 8.17063 5.64525 3.89141 
607 5 7.76178 6.96765 4.11592 
608 7 9.52878 5.33508 3.76559 
609 6 10.5134 6.31499 4.02938 
610 5 10.1179 7.63927 4.35102 
611 1 7.47078 4.8985 3.71567 
612 1 6.65196 7.20444 4.26891 
613 1 11.5946 6.07693 4.11984 
614 1 8.46827 9.02009 4.51901 
615 1 10.9103 8.32132 4.6531 
616 10 6.75911 0.0761145 6.91254 
617 4 9.76839 0.141846 7.145 
618 4 6.35218 -2.90375 7.04173 
619 4 6.62698 0.288384 10.0203 
620 4 7.1048 3.31368 7.16945 
621 9 9.60264 -2.30014 10.5279 
622 5 8.68722 -7.18325 9.4245 
623 3 8.5783 -2.61665 10.6168 
624 3 9.62333 -1.3444 10.089 
625 3 9.86319 -2.21543 11.5176 
626 8 10.4347 -3.26183 9.76631 
627 2 10.5006 -2.7469 8.7376 
628 2 11.4647 -3.29296 10.1599 
629 6 9.58817 -5.23861 8.35827 
630 5 9.04315 -6.4798 8.28913 
631 7 9.91982 -4.70998 9.64575 
632 6 9.5942 -5.42688 10.7907 
633 5 8.87177 -6.64993 10.692 
634 1 9.75712 -4.65224 7.51341 
635 1 8.87293 -6.97598 7.3146 
636 1 9.83368 -5.07929 11.8418 
637 1 8.00016 -7.98533 9.30086 
638 1 8.51046 -7.15648 11.5992 
639 9 10.197 2.75934 9.64198 
640 5 10.8292 7.87285 10.3573 
641 3 9.93601 1.84316 10.0042 
642 3 11.2183 2.73429 9.50491 
643 3 9.8522 2.90123 8.66625 
644 8 9.54467 3.76 10.6617 
645 2 8.48371 3.60191 10.463 
646 2 9.74225 3.26492 11.6447 
647 6 10.1637 5.78254 9.36264 
648 5 10.7182 7.08659 9.26942 
649 7 9.92581 5.24153 10.5842 
650 6 10.1404 6.04279 11.737 
651 5 10.606 7.3555 11.6487 
652 1 9.959 5.15418 8.49419 
653 1 10.8489 7.40328 8.24926 
654 1 9.83137 5.67253 12.739 
655 1 11.2053 8.84658 10.1849 
656 1 10.5611 7.99544 12.5036 
ITEM: TIMESTEP
111000
ITEM: NUMBER OF ATOMS
656
ITEM: BOX BOUNDS pp pp pp
-2.8592967216946441e+00 2.2059296721693521e+01
-4.3779677730546460e+01 4.3779677730546460e+01
-2.8100732784061915e+00 2.2010073278404860e+01
ITEM: ATOMS id type x y z 
1 10 12.9397 0.374998 12.9163 
2 4 16.1784 0.269298 13.3148 
3 4 12.9505 -2.80261 13.2224 
4 4 12.7267 0.296003 16.0605 
5 4 12.8697 3.3763 12.6233 
6 9 15.593 -2.36468 16.0595 
7 5 15.9614 -7.46143 16.3725 
8 3 15.6775 -2.29189 15.0062 
9 3 15.7445 -1.38775 16.4049 
10 3 14.5714 -2.52042 16.3129 
11 8 16.5356 -3.2234 16.8121 
12 2 17.5116 -2.89029 16.3336 
13 2 16.5039 -2.91226 17.8596 
14 6 16.3671 -5.27623 15.3809 
15 5 16.1076 -6.64191 15.2831 
16 7 16.3663 -4.71018 16.7028 
17 6 16.1727 -5.57958 17.8325 
18 5 15.84 -6.94797 17.6494 
19 1 16.5411 -4.53615 14.583 
20 1 15.989 -7.03547 14.2893 
21 1 16.234 -5.18088 18.9226 
22 1 15.7441 -8.51791 16.226 
23 1 15.6945 -7.55657 18.5476 
24 9 16.7076 2.9474 16.6359 
25 5 16.0162 7.78976 15.6588 
26 3 16.7005 2.90206 17.5923 
27 3 17.573 3.50673 16.3515 
28 3 16.8477 2.00124 16.2823 
29 8 15.4791 3.46619 15.9317 
30 2 15.4354 3.03458 14.852 
31 2 14.5929 3.15582 16.5289 
32 6 15.4921 5.79703 16.9786 
33 5 15.6633 7.18507 16.8475 
34 7 15.5773 4.97351 15.8549 
35 6 15.8492 5.57513 14.5591 
36 5 15.9821 6.97193 14.5104 
37 1 15.2507 5.41945 17.9839 
38 1 15.5237 7.80482 17.7243 
39 1 15.7604 4.94168 13.7348 
40 1 16.1438 8.83429 15.6377 
41 1 16.0737 7.42613 13.5593 
42 10 12.8291 0.487893 19.1172 
43 4 15.9762 0.466789 19.1577 
44 4 13.0671 -2.67771 19.0946 
45 4 12.883 0.276389 -2.62542 
46 4 12.575 3.62218 19.2789 
47 9 15.6174 -1.98862 -2.77263 
48 5 16.0494 -7.09204 21.4993 
49 3 15.6935 -1.01181 -2.4265 
50 3 14.6318 -2.20595 21.8372 
51 3 15.9892 -1.95723 21.0784 
52 8 16.3558 -3.02767 -1.93903 
53 2 17.3432 -2.6381 -1.85223 
54 2 15.8897 -2.94881 -0.96668 
55 6 15.0553 -4.90987 21.9058 
56 5 14.9383 -6.21941 21.4341 
57 7 16.3032 -4.47276 -2.42833 
58 6 17.4175 -5.29313 -2.40311 
59 5 17.2613 -6.63551 22.0133 
60 1 14.1958 -4.29462 -2.95829 
61 1 14.0161 -6.46735 20.9353 
62 1 18.3871 -5.02786 -1.98887 
63 1 15.9618 -8.16009 21.1519 
64 1 18.182 -7.26031 -2.85564 
65 9 16.0607 2.87664 -2.08752 
66 5 16.932 7.87856 -1.91325 
67 3 17.0585 2.73349 -2.05317 
68 3 15.6524 1.9795 -2.41832 
69 3 15.7814 3.20986 -1.07149 
70 8 15.6388 3.93551 21.8276 
71 2 15.9679 3.69979 20.8452 
72 2 14.4655 3.95608 21.7619 
73 6 17.4383 5.58358 -2.65671 
74 5 17.9252 6.88066 -2.2062 
75 7 16.0948 5.31848 -2.55293 
76 6 15.1035 6.31095 -2.10775 
77 5 15.5886 7.56117 -1.69326 
78 1 18.1159 4.6656 22.0716 
79 1 18.9991 7.16809 -2.16033 
80 1 14.0014 6.02162 -2.14067 
81 1 17.2347 8.8706 -1.8173 
82 1 14.888 8.3244 -1.34007 
83 10 12.7966 0.752043 0.357878 
84 4 15.8516 0.459502 0.522105 
85 4 12.7547 -2.84004 0.440575 
86 4 12.5781 0.570974 3.35815 
87 4 12.5784 3.50548 0.197031 
88 9 15.4526 -1.64301 3.57556 
89 5 15.6683 -6.88717 2.96767 
90 3 14.5337 -1.72695 4.04993 
91 3 15.4718 -1.65773 2.50142 
92 3 15.8473 -0.674862 3.70759 
93 8 16.4373 -2.72405 3.98898 
94 2 17.4308 -2.39602 3.72204 
95 2 16.4717 -2.81154 5.14081 
96 6 16.3356 -5.12544 4.54421 
97 5 16.0809 -6.52035 4.28259 
98 7 16.079 -4.14787 3.59331 
99 6 15.8224 -4.56047 2.26389 
100 5 15.6537 -5.89264 1.92912 
101 1 16.5659 -4.75783 5.5383 
102 1 16.071 -7.20108 5.16191 
103 1 15.7652 -3.78671 1.50416 
104 1 15.4866 -7.94487 2.66393 
105 1 15.5281 -6.11074 0.909216 
106 9 16.7649 3.13443 3.61593 
107 5 16.0998 8.10868 3.33846 
108 3 16.9116 2.35759 3.06215 
109 3 16.7577 2.72875 4.53627 
110 3 17.5827 3.7202 3.54141 
111 8 15.4006 3.77914 3.4149 
112 2 15.0793 3.59455 2.41287 
113 2 14.7659 3.33837 4.15374 
114 6 15.7546 6.04125 4.66042 
115 5 16.0768 7.39208 4.56923 
116 7 15.4513 5.36591 3.45999 
117 6 15.6098 5.99278 2.22362 
118 5 15.8048 7.41071 2.16515 
119 1 15.63 5.43052 5.59987 
120 1 16.2571 7.85069 5.56465 
121 1 15.5336 5.38776 1.35462 
122 1 16.4987 9.14916 3.30326 
123 1 16.0723 7.85608 1.16893 
124 10 13.0326 0.210294 6.76067 
125 4 16.1656 0.446773 6.45602 
126 4 13.3862 -2.73117 6.44613 
127 4 13.3317 0.205806 9.90509 
128 4 12.6212 3.26799 6.81766 
129 9 15.8421 -2.351 9.51845 
130 5 16.2498 -7.51657 10.2143 
131 3 15.9258 -1.347 9.69692 
132 3 14.8641 -2.4607 9.42447 
133 3 16.1988 -2.57501 8.56394 
134 8 16.4718 -3.14556 10.666 
135 2 17.5286 -2.82049 10.7297 
136 2 16.065 -2.797 11.6007 
137 6 15.0958 -5.36209 10.5231 
138 5 15.1149 -6.751 10.4028 
139 7 16.3741 -4.67556 10.5555 
140 6 17.559 -5.39046 10.3406 
141 5 17.4552 -6.76217 10.0789 
142 1 14.2123 -4.83549 10.6738 
143 1 14.0886 -7.29004 10.4259 
144 1 18.5714 -4.86781 10.4277 
145 1 16.2639 -8.56432 10.1292 
146 1 18.3461 -7.29796 9.84704 
147 9 16.3487 2.60517 10.8145 
148 5 16.8413 7.53319 10.2679 
149 3 15.9837 2.91251 11.8055 
150 3 17.3721 2.72952 10.8802 
151 3 16.1721 1.60324 10.6536 
152 8 15.7682 3.43599 9.64595 
153 2 16.122 3.06666 8.69504 
154 2 14.6804 3.25848 9.55272 
155 6 17.449 5.2168 10.082 
156 5 17.8633 6.52704 10.2289 
157 7 16.0763 4.89574 9.82604 
158 6 15.1328 5.88195 9.74728 
159 5 15.5562 7.2014 9.92595 
160 1 18.1581 4.37098 10.19 
161 1 18.9022 6.68975 10.4848 
162 1 14.1249 5.7039 9.47912 
163 1 17.1513 8.555 10.3101 
164 1 14.8635 8.12735 9.87387 
165 10 19.2557 0.288715 13.2157 
166 4 -2.53653 0.301869 13.087 
167 4 19.3163 -2.7855 13.3892 
168 4 19.2318 0.117545 16.1281 
169 4 19.0052 3.30708 13.3141 
170 9 -2.39516 -2.37195 15.7264 
171 5 -2.3929 -7.35315 15.5391 
172 3 22.1868 -2.62873 14.7886 
173 3 -1.41851 -2.42116 15.5904 
174 3 -2.5551 -1.35469 15.8077 
175 8 -2.91351 -3.28914 16.8866 
176 2 -2.36117 -3.15286 17.8129 
177 2 20.9314 -3.07907 17.0324 
178 6 21.1454 -5.54783 16.2155 
179 5 21.2576 -6.88712 15.8241 
180 7 -2.68703 -4.7231 16.5163 
181 6 -1.36565 -5.26813 16.3886 
182 5 -1.27866 -6.57151 15.8089 
183 1 20.2095 -5.08175 16.3403 
184 1 20.3555 -7.50079 15.5379 
185 1 -0.469541 -4.72644 16.5506 
186 1 -2.29886 -8.35233 15.0196 
187 1 -0.272381 -6.88858 15.5245 
188 9 -2.73119 2.48821 16.5398 
189 5 21.6525 7.39954 17.5554 
190 3 -2.3677 2.3886 17.4948 
191 3 -2.65672 1.56758 15.9952 
192 3 21.2364 2.76932 16.7102 
193 8 -2.05881 3.60829 15.7851 
194 2 -0.938696 3.5799 15.8319 
195 2 -2.36265 3.53419 14.7975 
196 6 21.1246 5.3031 16.4315 
197 5 20.716 6.47262 16.9794 
198 7 -2.44442 4.93491 16.3438 
199 6 -1.53678 5.85713 16.9238 
200 5 -1.90633 7.05849 17.551 
201 1 20.3311 4.60862 16.1045 
202 1 19.6898 6.68006 17.1592 
203 1 -0.46712 5.72762 16.8316 
204 1 21.3517 8.21313 18.0332 
205 1 -1.16998 7.74328 18.0347 
206 10 18.9663 0.0592149 19.4121 
207 4 -2.6554 0.0351567 19.4899 
208 4 19.3237 -3.07448 19.7715 
209 4 18.9762 0.318755 -2.44315 
210 4 19.3785 3.21607 19.0316 
211 9 21.7443 -2.35928 -2.02016 
212 5 -2.6748 -7.444 -2.38538 
213 3 20.7622 -2.58765 -2.30695 
214 3 21.8375 -1.35924 -2.1719 
215 3 21.7717 -2.58276 -1.01875 
216 8 -2.12432 -3.21877 -2.70675 
217 2 -2.14513 -2.98118 21.0261 
218 2 -1.14179 -2.92939 -2.42322 
219 6 -2.4397 -5.27819 -1.28652 
220 5 -2.6718 -6.66566 -1.21543 
221 7 -2.26651 -4.70648 -2.55529 
222 6 -2.21156 -5.50179 21.092 
223 5 -2.34225 -6.92034 21.1923 
224 1 -2.46299 -4.61164 -0.362981 
225 1 -2.88732 -7.16198 -0.287377 
226 1 -1.99109 -5.04948 20.1476 
227 1 -2.76472 -8.49831 -2.33523 
228 1 -2.37188 -7.52129 20.3364 
229 9 -2.22869 2.7335 -2.66018 
230 5 -1.79933 7.69439 -2.06537 
231 3 -2.30578 2.70816 21.1682 
232 3 -2.48872 1.72725 -2.39162 
233 3 -1.28736 2.85705 -2.38925 
234 8 21.7571 3.66945 -1.94176 
235 2 20.8057 3.47612 -2.38783 
236 2 21.6946 3.41531 -0.9045 
237 6 -2.57701 5.73151 21.5356 
238 5 -2.11402 7.09744 21.5274 
239 7 -2.81644 5.10893 -2.07335 
240 6 -2.62317 5.7857 -0.856904 
241 5 -2.03443 7.039 -0.828821 
242 1 -2.69136 5.15348 20.6306 
243 1 -1.87414 7.55344 20.5966 
244 1 -2.86989 5.29196 0.0518436 
245 1 -1.38899 8.76571 -2.07638 
246 1 -1.80022 7.54801 0.125372 
247 10 18.779 0.314138 0.717076 
248 4 -2.71861 0.253932 0.432981 
249 4 19.237 -2.80139 0.788097 
250 4 19.2347 0.52387 3.80288 
251 4 18.7171 3.50867 0.752283 
252 9 -2.69272 -2.21669 3.30792 
253 5 21.24 -7.30187 3.52529 
254 3 22.1862 -2.54428 2.28403 
255 3 -1.70874 -2.21112 3.69403 
256 3 -3.05685 -1.23329 3.2576 
257 8 21.3983 -2.97269 4.20351 
258 2 21.7096 -2.7729 5.21472 
259 2 20.38 -2.61466 3.99536 
260 6 20.1406 -5.20994 3.89301 
261 5 20.0538 -6.59471 3.74458 
262 7 21.3797 -4.54926 4.00313 
263 6 -2.36397 -5.24724 3.75313 
264 5 -2.44595 -6.6546 3.52784 
265 1 19.1883 -4.69877 4.05633 
266 1 19.0991 -7.04891 3.65486 
267 1 -1.39425 -4.76565 3.84063 
268 1 21.1565 -8.40796 3.42933 
269 1 -1.49602 -7.23333 3.40791 
270 9 -2.46162 2.92471 4.61686 
271 5 -1.73686 7.74639 3.55364 
272 3 21.9739 3.23076 5.48386 
273 3 -1.45072 3.01993 4.78088 
274 3 -2.73137 1.89674 4.52258 
275 8 -2.69037 3.58025 3.3369 
276 2 -2.15755 3.18571 2.5082 
277 2 21.1355 3.51869 3.10747 
278 6 -1.01265 5.43513 3.51076 
279 5 -0.675915 6.80514 3.5494 
280 7 -2.39042 5.06856 3.4031 
281 6 21.5439 6.06359 3.40092 
282 5 21.8345 7.40159 3.5352 
283 1 -0.197421 4.61297 3.43306 