ITEM: TIMESTEP
0
ITEM: NUMBER OF ATOMS
656
ITEM: BOX BOUNDS pp pp pp
-3.2000000000000002e+00 2.2400000000000002e+01
-4.3779677730546460e+01 4.3779677730546460e+01
-3.2000000000000002e+00 2.2400000000000002e+01
ITEM: ATOMS id type x y z 
1 10 0 0 0 
2 4 3.2 0 0 
3 4 0 -3.2 0 
4 4 0 0 3.2 
5 4 0 3.2 0 
6 9 3.2 -3.2 3.2 
7 5 3.2 -8.15352 3.2 
8 3 4.16719 -3.41384 2.95133 
9 3 3.0963 -3.40171 4.19573 
10 3 3.03992 -2.20255 3.05241 
11 8 2.24938 -4.07172 2.38909 
12 2 1.24356 -3.78957 2.697 
13 2 2.39717 -3.79102 1.34721 
14 6 1.93048 -6.1788 3.70154 
15 5 2.25415 -7.49774 3.97496 
16 7 2.55597 -5.51228 2.6514 
17 6 3.49826 -6.17689 1.87116 
18 5 3.81983 -7.49573 2.14719 
19 1 1.17241 -5.67714 4.29544 
20 1 1.75963 -8.01788 4.78543 
21 1 3.96818 -5.67383 1.03141 
22 1 3.44715 -9.18645 3.41083 
23 1 4.5455 -8.01403 1.53342 
24 9 3.2 3.2 3.2 
25 5 3.2 8.15352 3.2 
26 3 2.85813 3.41384 4.13831 
27 3 4.2011 3.40171 3.19397 
28 3 3.06874 2.20255 3.02628 
29 8 2.48574 4.07172 2.17478 
30 2 2.89033 3.78957 1.20381 
31 2 1.4344 3.79102 2.22019 
32 6 3.82304 6.1788 1.98549 
33 5 4.06357 7.49774 2.3343 
34 7 2.71687 5.51228 2.50551 
35 6 1.8484 6.17689 3.36715 
36 5 2.09173 7.49573 3.71413 
37 1 4.48809 5.67714 1.28899 
38 1 4.91843 8.01788 1.92123 
39 1 0.966789 5.67383 3.75288 
40 1 3.3857 9.18645 3.46655 
41 1 1.41006 8.01403 4.37643 
42 10 0 0 6.4 
43 4 3.2 0 6.4 
44 4 0 -3.2 6.4 
45 4 0 0 9.6 
46 4 0 3.2 6.4 
47 9 3.2 -3.2 9.6 
48 5 3.2 -8.15352 9.6 
49 3 4.16719 -3.41384 9.35133 
50 3 3.0963 -3.40171 10.5957 
51 3 3.03992 -2.20255 9.45241 
52 8 2.24938 -4.07172 8.78909 
53 2 1.24356 -3.78957 9.097 
54 2 2.39717 -3.79102 7.74721 
55 6 1.93048 -6.1788 10.1015 
56 5 2.25415 -7.49774 10.375 
57 7 2.55597 -5.51228 9.0514 
58 6 3.49826 -6.17689 8.27116 
59 5 3.81983 -7.49573 8.54719 
60 1 1.17241 -5.67714 10.6954 
61 1 1.75963 -8.01788 11.1854 
62 1 3.96818 -5.67383 7.43141 
63 1 3.44715 -9.18645 9.81083 
64 1 4.5455 -8.01403 7.93342 
65 9 3.2 3.2 9.6 
66 5 3.2 8.15352 9.6 
67 3 2.85813 3.41384 10.5383 
68 3 4.2011 3.40171 9.59397 
69 3 3.06874 2.20255 9.42628 
70 8 2.48574 4.07172 8.57478 
71 2 2.89033 3.78957 7.60381 
72 2 1.4344 3.79102 8.62019 
73 6 3.82304 6.1788 8.38549 
74 5 4.06357 7.49774 8.7343 
75 7 2.71687 5.51228 8.90551 
76 6 1.8484 6.17689 9.76715 
77 5 2.09173 7.49573 10.1141 
78 1 4.48809 5.67714 7.68899 
79 1 4.91843 8.01788 8.32123 
80 1 0.966789 5.67383 10.1529 
81 1 3.3857 9.18645 9.86655 
82 1 1.41006 8.01403 10.7764 
83 10 0 0 12.8 
84 4 3.2 0 12.8 
85 4 0 -3.2 12.8 
86 4 0 0 16 
87 4 0 3.2 12.8 
88 9 3.2 -3.2 16 
89 5 3.2 -8.15352 16 
90 3 4.16719 -3.41384 15.7513 
91 3 3.0963 -3.40171 16.9957 
92 3 3.03992 -2.20255 15.8524 
93 8 2.24938 -4.07172 15.1891 
94 2 1.24356 -3.78957 15.497 
95 2 2.39717 -3.79102 14.1472 
96 6 1.93048 -6.1788 16.5015 
97 5 2.25415 -7.49774 16.775 
98 7 2.55597 -5.51228 15.4514 
99 6 3.49826 -6.17689 14.6712 
100 5 3.81983 -7.49573 14.9472 
101 1 1.17241 -5.67714 17.0954 
102 1 1.75963 -8.01788 17.5854 
103 1 3.96818 -5.67383 13.8314 
104 1 3.44715 -9.18645 16.2108 
105 1 4.5455 -8.01403 14.3334 
106 9 3.2 3.2 16 
107 5 3.2 8.15352 16 
108 3 2.85813 3.41384 16.9383 
109 3 4.2011 3.40171 15.994 
110 3 3.06874 2.20255 15.8263 
111 8 2.48574 4.07172 14.9748 
112 2 2.89033 3.78957 14.0038 
113 2 1.4344 3.79102 15.0202 
114 6 3.82304 6.1788 14.7855 
115 5 4.06357 7.49774 15.1343 
116 7 2.71687 5.51228 15.3055 
117 6 1.8484 6.17689 16.1672 
118 5 2.09173 7.49573 16.5141 
119 1 4.48809 5.67714 14.089 
120 1 4.91843 8.01788 14.7212 
121 1 0.966789 5.67383 16.5529 
122 1 3.3857 9.18645 16.2665 
123 1 1.41006 8.01403 17.1764 
124 10 0 0 19.2 
125 4 3.2 0 19.2 
126 4 0 -3.2 19.2 
127 4 0 0 -3.2 
128 4 0 3.2 19.2 
129 9 3.2 -3.2 22.4 
130 5 3.2 -8.15352 22.4 
131 3 4.16719 -3.41384 22.1513 
132 3 3.0963 -3.40171 -2.20427 
133 3 3.03992 -2.20255 22.2524 
134 8 2.24938 -4.07172 21.5891 
135 2 1.24356 -3.78957 21.897 
136 2 2.39717 -3.79102 20.5472 
137 6 1.93048 -6.1788 -2.69846 
138 5 2.25415 -7.49774 -2.42504 
139 7 2.55597 -5.51228 21.8514 
140 6 3.49826 -6.17689 21.0712 
141 5 3.81983 -7.49573 21.3472 
142 1 1.17241 -5.67714 -2.10456 
143 1 1.75963 -8.01788 -1.61457 
144 1 3.96818 -5.67383 20.2314 
145 1 3.44715 -9.18645 -2.98917 
146 1 4.5455 -8.01403 20.7334 
147 9 3.2 3.2 -3.2 
148 5 3.2 8.15352 -3.2 
149 3 2.85813 3.41384 -2.26169 
150 3 4.2011 3.40171 22.394 
151 3 3.06874 2.20255 22.2263 
152 8 2.48574 4.07172 21.3748 
153 2 2.89033 3.78957 20.4038 
154 2 1.4344 3.79102 21.4202 
155 6 3.82304 6.1788 21.1855 
156 5 4.06357 7.49774 21.5343 
157 7 2.71687 5.51228 21.7055 
158 6 1.8484 6.17689 -3.03285 
159 5 2.09173 7.49573 -2.68587 
160 1 4.48809 5.67714 20.489 
161 1 4.91843 8.01788 21.1212 
162 1 0.966789 5.67383 -2.64712 
163 1 3.3857 9.18645 -2.93345 
164 1 1.41006 8.01403 -2.02357 
165 10 6.4 0 0 
166 4 9.6 0 0 
167 4 6.4 -3.2 0 
168 4 6.4 0 3.2 
169 4 6.4 3.2 0 
170 9 9.6 -3.2 3.2 
171 5 9.6 -8.15352 3.2 
172 3 10.5672 -3.41384 2.95133 
173 3 9.4963 -3.40171 4.19573 
174 3 9.43992 -2.20255 3.05241 
175 8 8.64938 -4.07172 2.38909 
176 2 7.64356 -3.78957 2.697 
177 2 8.79717 -3.79102 1.34721 
178 6 8.33048 -6.1788 3.70154 
179 5 8.65415 -7.49774 3.97496 
180 7 8.95597 -5.51228 2.6514 
181 6 9.89826 -6.17689 1.87116 
182 5 10.2198 -7.49573 2.14719 
183 1 7.57241 -5.67714 4.29544 
184 1 8.15963 -8.01788 4.78543 
185 1 10.3682 -5.67383 1.03141 
186 1 9.84715 -9.18645 3.41083 
187 1 10.9455 -8.01403 1.53342 
188 9 9.6 3.2 3.2 
189 5 9.6 8.15352 3.2 
190 3 9.25813 3.41384 4.13831 
191 3 10.6011 3.40171 3.19397 
192 3 9.46874 2.20255 3.02628 
193 8 8.88574 4.07172 2.17478 
194 2 9.29033 3.78957 1.20381 
195 2 7.8344 3.79102 2.22019 
196 6 10.223 6.1788 1.98549 
197 5 10.4636 7.49774 2.3343 
198 7 9.11687 5.51228 2.50551 
199 6 8.2484 6.17689 3.36715 
200 5 8.49173 7.49573 3.71413 
201 1 10.8881 5.67714 1.28899 
202 1 11.3184 8.01788 1.92123 
203 1 7.36679 5.67383 3.75288 
204 1 9.7857 9.18645 3.46655 
205 1 7.81006 8.01403 4.37643 
206 10 6.4 0 6.4 
207 4 9.6 0 6.4 
208 4 6.4 -3.2 6.4 
209 4 6.4 0 9.6 
210 4 6.4 3.2 6.4 
211 9 9.6 -3.2 9.6 
212 5 9.6 -8.15352 9.6 
213 3 10.5672 -3.41384 9.35133 
214 3 9.4963 -3.40171 10.5957 
215 3 9.43992 -2.20255 9.45241 
216 8 8.64938 -4.07172 8.78909 
217 2 7.64356 -3.78957 9.097 
218 2 8.79717 -3.79102 7.74721 
219 6 8.33048 -6.1788 10.1015 
220 5 8.65415 -7.49774 10.375 
221 7 8.95597 -5.51228 9.0514 
222 6 9.89826 -6.17689 8.27116 
223 5 10.2198 -7.49573 8.54719 
224 1 7.57241 -5.67714 10.6954 
225 1 8.15963 -8.01788 11.1854 
226 1 10.3682 -5.67383 7.43141 
227 1 9.84715 -9.18645 9.81083 
228 1 10.9455 -8.01403 7.93342 
229 9 9.6 3.2 9.6 
230 5 9.6 8.15352 9.6 
231 3 9.25813 3.41384 10.5383 
232 3 10.6011 3.40171 9.59397 
233 3 9.46874 2.20255 9.42628 
234 8 8.88574 4.07172 8.57478 
235 2 9.29033 3.78957 7.60381 
236 2 7.8344 3.79102 8.62019 
237 6 10.223 6.1788 8.38549 
238 5 10.4636 7.49774 8.7343 
239 7 9.11687 5.51228 8.90551 
240 6 8.2484 6.17689 9.76715 
241 5 8.49173 7.49573 10.1141 
242 1 10.8881 5.67714 7.68899 
243 1 11.3184 8.01788 8.32123 
244 1 7.36679 5.67383 10.1529 
245 1 9.7857 9.18645 9.86655 
246 1 7.81006 8.01403 10.7764 
247 10 6.4 0 12.8 
248 4 9.6 0 12.8 
249 4 6.4 -3.2 12.8 
250 4 6.4 0 16 
251 4 6.4 3.2 12.8 
252 9 9.6 -3.2 16 
253 5 9.6 -8.15352 16 
254 3 10.5672 -3.41384 15.7513 
255 3 9.4963 -3.40171 16.9957 
256 3 9.43992 -2.20255 15.8524 
257 8 8.64938 -4.07172 15.1891 
258 2 7.64356 -3.78957 15.497 
259 2 8.79717 -3.79102 14.1472 
260 6 8.33048 -6.1788 16.5015 
261 5 8.65415 -7.49774 16.775 
262 7 8.95597 -5.51228 15.4514 
263 6 9.89826 -6.17689 14.6712 
264 5 10.2198 -7.49573 14.9472 
265 1 7.57241 -5.67714 17.0954 
266 1 8.15963 -8.01788 17.5854 
267 1 10.3682 -5.67383 13.8314 
268 1 9.84715 -9.18645 16.2108 
269 1 10.9455 -8.01403 14.3334 
270 9 9.6 3.2 16 
271 5 9.6 8.15352 16 
272 3 9.25813 3.41384 16.9383 
273 3 10.6011 3.40171 15.994 
274 3 9.46874 2.20255 15.8263 
275 8 8.88574 4.07172 14.9748 
276 2 9.29033 3.78957 14.0038 
277 2 7.8344 3.79102 15.0202 
278 6 10.223 6.1788 14.7855 
279 5 10.4636 7.49774 15.1343 
280 7 9.11687 5.51228 15.3055 
281 6 8.2484 6.17689 16.1672 
282 5 8.49173 7.49573 16.5141 
283 1 10.8881 5.67714 14.089 
284 1 11.3184 8.01788 14.7212 
285 1 7.36679 5.67383 16.5529 
286 1 9.7857 9.18645 16.2665 
287 1 7.81006 8.01403 17.1764 
288 10 6.4 0 19.2 
289 4 9.6 0 19.2 
290 4 6.4 -3.2 19.2 
291 4 6.4 0 -3.2 
292 4 6.4 3.2 19.2 
293 9 9.6 -3.2 22.4 
294 5 9.6 -8.15352 22.4 
295 3 10.5672 -3.41384 22.1513 
296 3 9.4963 -3.40171 -2.20427 
297 3 9.43992 -2.20255 22.2524 
298 8 8.64938 -4.07172 21.5891 
299 2 7.64356 -3.78957 21.897 
300 2 8.79717 -3.79102 20.5472 
301 6 8.33048 -6.1788 -2.69846 
302 5 8.65415 -7.49774 -2.42504 
303 7 8.95597 -5.51228 21.8514 
304 6 9.89826 -6.17689 21.0712 
305 5 10.2198 -7.49573 21.3472 
306 1 7.57241 -5.67714 -2.10456 
307 1 8.15963 -8.01788 -1.61457 
308 1 10.3682 -5.67383 20.2314 
309 1 9.84715 -9.18645 -2.98917 
310 1 10.9455 -8.01403 20.7334 
311 9 9.6 3.2 -3.2 
312 5 9.6 8.15352 -3.2 
313 3 9.25813 3.41384 -2.26169 
314 3 10.6011 3.40171 22.394 
315 3 9.46874 2.20255 22.2263 
316 8 8.88574 4.07172 21.3748 
317 2 9.29033 3.78957 20.4038 
318 2 7.8344 3.79102 21.4202 
319 6 10.223 6.1788 21.1855 
320 5 10.4636 7.49774 21.5343 
321 7 9.11687 5.51228 21.7055 
322 6 8.2484 6.17689 -3.03285 
323 5 8.49173 7.49573 -2.68587 
324 1 10.8881 5.67714 20.489 
325 1 11.3184 8.01788 21.1212 
326 1 7.36679 5.67383 -2.64712 
327 1 9.7857 9.18645 -2.93345 
328 1 7.81006 8.01403 -2.02357 
329 10 12.8 0 0 
330 4 16 0 0 
331 4 12.8 -3.2 0 
332 4 12.8 0 3.2 
333 4 12.8 3.2 0 
334 9 16 -3.2 3.2 
335 5 16 -8.15352 3.2 
336 3 16.9672 -3.41384 2.95133 
337 3 15.8963 -3.40171 4.19573 
338 3 15.8399 -2.20255 3.05241 
339 8 15.0494 -4.07172 2.38909 
340 2 14.0436 -3.78957 2.697 
341 2 15.1972 -3.79102 1.34721 
342 6 14.7305 -6.1788 3.70154 
343 5 15.0542 -7.49774 3.97496 
344 7 15.356 -5.51228 2.6514 
345 6 16.2983 -6.17689 1.87116 
346 5 16.6198 -7.49573 2.14719 
347 1 13.9724 -5.67714 4.29544 
348 1 14.5596 -8.01788 4.78543 
349 1 16.7682 -5.67383 1.03141 
350 1 16.2472 -9.18645 3.41083 
351 1 17.3455 -8.01403 1.53342 
352 9 16 3.2 3.2 
353 5 16 8.15352 3.2 
354 3 15.6581 3.41384 4.13831 
355 3 17.0011 3.40171 3.19397 
356 3 15.8687 2.20255 3.02628 
357 8 15.2857 4.07172 2.17478 
358 2 15.6903 3.78957 1.20381 
359 2 14.2344 3.79102 2.22019 
360 6 16.623 6.1788 1.98549 
361 5 16.8636 7.49774 2.3343 
362 7 15.5169 5.51228 2.50551 
363 6 14.6484 6.17689 3.36715 
364 5 14.8917 7.49573 3.71413 
365 1 17.2881 5.67714 1.28899 
366 1 17.7184 8.01788 1.92123 
367 1 13.7668 5.67383 3.75288 
368 1 16.1857 9.18645 3.46655 
369 1 14.2101 8.01403 4.37643 
370 10 12.8 0 6.4 
371 4 16 0 6.4 
372 4 12.8 -3.2 6.4 
373 4 12.8 0 9.6 
374 4 12.8 3.2 6.4 
375 9 16 -3.2 9.6 
376 5 16 -8.15352 9.6 
377 3 16.9672 -3.41384 9.35133 
378 3 15.8963 -3.40171 10.5957 
379 3 15.8399 -2.20255 9.45241 
380 8 15.0494 -4.07172 8.78909 
381 2 14.0436 -3.78957 9.097 
382 2 15.1972 -3.79102 7.74721 
383 6 14.7305 -6.1788 10.1015 
384 5 15.0542 -7.49774 10.375 
385 7 15.356 -5.51228 9.0514 
386 6 16.2983 -6.17689 8.27116 
387 5 16.6198 -7.49573 8.54719 
388 1 13.9724 -5.67714 10.6954 
389 1 14.5596 -8.01788 11.1854 
390 1 16.7682 -5.67383 7.43141 
391 1 16.2472 -9.18645 9.81083 
392 1 17.3455 -8.01403 7.93342 
393 9 16 3.2 9.6 
394 5 16 8.15352 9.6 
395 3 15.6581 3.41384 10.5383 
396 3 17.0011 3.40171 9.59397 
397 3 15.8687 2.20255 9.42628 
398 8 15.2857 4.07172 8.57478 
399 2 15.6903 3.78957 7.60381 
400 2 14.2344 3.79102 8.62019 
401 6 16.623 6.1788 8.38549 
402 5 16.8636 7.49774 8.7343 
403 7 15.5169 5.51228 8.90551 
404 6 14.6484 6.17689 9.76715 
405 5 14.8917 7.49573 10.1141 
406 1 17.2881 5.67714 7.68899 
407 1 17.7184 8.01788 8.32123 
408 1 13.7668 5.67383 10.1529 
409 1 16.1857 9.18645 9.86655 
410 1 14.2101 8.01403 10.7764 
411 10 12.8 0 12.8 
412 4 16 0 12.8 
413 4 12.8 -3.2 12.8 
414 4 12.8 0 16 
415 4 12.8 3.2 12.8 
416 9 16 -3.2 16 
417 5 16 -8.15352 16 
418 3 16.9672 -3.41384 15.7513 
419 3 15.8963 -3.40171 16.9957 
420 3 15.8399 -2.20255 15.8524 
421 8 15.0494 -4.07172 15.1891 
422 2 14.0436 -3.78957 15.497 
423 2 15.1972 -3.79102 14.1472 
424 6 14.7305 -6.1788 16.5015 
425 5 15.0542 -7.49774 16.775 
426 7 15.356 -5.51228 15.4514 
427 6 16.2983 -6.17689 14.6712 
428 5 16.6198 -7.49573 14.9472 
429 1 13.9724 -5.67714 17.0954 
430 1 14.5596 -8.01788 17.5854 
431 1 16.7682 -5.67383 13.8314 
432 1 16.2472 -9.18645 16.2108 
433 1 17.3455 -8.01403 14.3334 
434 9 16 3.2 16 
435 5 16 8.15352 16 
436 3 15.6581 3.41384 16.9383 
437 3 17.0011 3.40171 15.994 
438 3 15.8687 2.20255 15.8263 
439 8 15.2857 4.07172 14.9748 
440 2 15.6903 3.78957 14.0038 
441 2 14.2344 3.79102 15.0202 
442 6 16.623 6.1788 14.7855 
443 5 16.8636 7.49774 15.1343 
444 7 15.5169 5.51228 15.3055 
445 6 14.6484 6.17689 16.1672 
446 5 14.8917 7.49573 16.5141 
447 1 17.2881 5.67714 14.089 
448 1 17.7184 8.01788 14.7212 
449 1 13.7668 5.67383 16.5529 
450 1 16.1857 9.18645 16.2665 
451 1 14.2101 8.01403 17.1764 
452 10 12.8 0 19.2 
453 4 16 0 19.2 
454 4 12.8 -3.2 19.2 
455 4 12.8 0 -3.2 
456 4 12.8 3.2 19.2 
457 9 16 -3.2 22.4 
458 5 16 -8.15352 22.4 
459 3 16.9672 -3.41384 22.1513 
460 3 15.8963 -3.40171 -2.20427 
461 3 15.8399 -2.20255 22.2524 
462 8 15.0494 -4.07172 21.5891 
463 2 14.0436 -3.78957 21.897 
464 2 15.1972 -3.79102 20.5472 
465 6 14.7305 -6.1788 -2.69846 
466 5 15.0542 -7.49774 -2.42504 
467 7 15.356 -5.51228 21.8514 
468 6 16.2983 -6.17689 21.0712 
469 5 16.6198 -7.49573 21.3472 
470 1 13.9724 -5.67714 -2.10456 
471 1 14.5596 -8.01788 -1.61457 
472 1 16.7682 -5.67383 20.2314 
473 1 16.2472 -9.18645 -2.98917 
474 1 17.3455 -8.01403 20.7334 
475 9 16 3.2 -3.2 
476 5 16 8.15352 -3.2 
477 3 15.6581 3.41384 -2.26169 
478 3 17.0011 3.40171 22.394 
479 3 15.8687 2.20255 22.2263 
480 8 15.2857 4.07172 21.3748 
481 2 15.6903 3.78957 20.4038 
482 2 14.2344 3.79102 21.4202 
483 6 16.623 6.1788 21.1855 
484 5 16.8636 7.49774 21.5343 
485 7 15.5169 5.51228 21.7055 
486 6 14.6484 6.17689 -3.03285 
487 5 14.8917 7.49573 -2.68587 
488 1 17.2881 5.67714 20.489 
489 1 17.7184 8.01788 21.1212 
490 1 13.7668 5.67383 -2.64712 
491 1 16.1857 9.18645 -2.93345 
492 1 14.2101 8.01403 -2.02357 
493 10 19.2 0 0 
494 4 -3.2 0 0 
495 4 19.2 -3.2 0 
496 4 19.2 0 3.2 
497 4 19.2 3.2 0 
498 9 22.4 -3.2 3.2 
499 5 -3.2 -8.15352 3.2 
500 3 -2.23281 -3.41384 2.95133 
501 3 22.2963 -3.40171 4.19573 
502 3 22.2399 -2.20255 3.05241 
503 8 21.4494 -4.07172 2.38909 
504 2 20.4436 -3.78957 2.697 
505 2 21.5972 -3.79102 1.34721 
506 6 21.1305 -6.1788 3.70154 
507 5 21.4542 -7.49774 3.97496 
508 7 21.756 -5.51228 2.6514 
509 6 -2.90174 -6.17689 1.87116 
510 5 -2.58017 -7.49573 2.14719 
511 1 20.3724 -5.67714 4.29544 
512 1 20.9596 -8.01788 4.78543 
513 1 -2.43182 -5.67383 1.03141 
514 1 -2.95285 -9.18645 3.41083 
515 1 -1.8545 -8.01403 1.53342 
516 9 -3.2 3.2 3.2 
517 5 22.4 8.15352 3.2 
518 3 22.0581 3.41384 4.13831 
519 3 -2.1989 3.40171 3.19397 
520 3 22.2687 2.20255 3.02628 
521 8 21.6857 4.07172 2.17478 
522 2 22.0903 3.78957 1.20381 
523 2 20.6344 3.79102 2.22019 
524 6 -2.57696 6.1788 1.98549 
525 5 -2.33643 7.49774 2.3343 
526 7 21.9169 5.51228 2.50551 
527 6 21.0484 6.17689 3.36715 
528 5 21.2917 7.49573 3.71413 
529 1 -1.91191 5.67714 1.28899 
530 1 -1.48157 8.01788 1.92123 
531 1 20.1668 5.67383 3.75288 
532 1 -3.0143 9.18645 3.46655 
533 1 20.6101 8.01403 4.37643 
534 10 19.2 0 6.4 
535 4 -3.2 0 6.4 
536 4 19.2 -3.2 6.4 
537 4 19.2 0 9.6 
538 4 19.2 3.2 6.4 
539 9 22.4 -3.2 9.6 
540 5 -3.2 -8.15352 9.6 
541 3 -2.23281 -3.41384 9.35133 
542 3 22.2963 -3.40171 10.5957 
543 3 22.2399 -2.20255 9.45241 
544 8 21.4494 -4.07172 8.78909 
545 2 20.4436 -3.78957 9.097 
546 2 21.5972 -3.79102 7.74721 
547 6 21.1305 -6.1788 10.1015 
548 5 21.4542 -7.49774 10.375 
549 7 21.756 -5.51228 9.0514 
550 6 -2.90174 -6.17689 8.27116 
551 5 -2.58017 -7.49573 8.54719 
552 1 20.3724 -5.67714 10.6954 
553 1 20.9596 -8.01788 11.1854 
554 1 -2.43182 -5.67383 7.43141 
555 1 -2.95285 -9.18645 9.81083 
556 1 -1.8545 -8.01403 7.93342 
557 9 -3.2 3.2 9.6 
558 5 22.4 8.15352 9.6 
559 3 22.0581 3.41384 10.5383 
560 3 -2.1989 3.40171 9.59397 
561 3 22.2687 2.20255 9.42628 
562 8 21.6857 4.07172 8.57478 
563 2 22.0903 3.78957 7.60381 
564 2 20.6344 3.79102 8.62019 
565 6 -2.57696 6.1788 8.38549 
566 5 -2.33643 7.49774 8.7343 
567 7 21.9169 5.51228 8.90551 
568 6 21.0484 6.17689 9.76715 
569 5 21.2917 7.49573 10.1141 
570 1 -1.91191 5.67714 7.68899 
571 1 -1.48157 8.01788 8.32123 
572 1 20.1668 5.67383 10.1529 
573 1 -3.0143 9.18645 9.86655 
574 1 20.6101 8.01403 10.7764 
575 10 19.2 0 12.8 
576 4 -3.2 0 12.8 
577 4 19.2 -3.2 12.8 
578 4 19.2 0 16 
579 4 19.2 3.2 12.8 
580 9 22.4 -3.2 16 
581 5 22.4 -8.15352 16 
582 3 -2.23281 -3.41384 15.7513 
583 3 22.2963 -3.40171 16.9957 
584 3 22.2399 -2.20255 15.8524 
585 8 21.4494 -4.07172 15.1891 
586 2 20.4436 -3.78957 15.497 
587 2 21.5972 -3.79102 14.1472 
588 6 21.1305 -6.1788 16.5015 
589 5 21.4542 -7.49774 16.775 
590 7 21.756 -5.51228 15.4514 
591 6 -2.90174 -6.17689 14.6712 
592 5 -2.58017 -7.49573 14.9472 
593 1 20.3724 -5.67714 17.0954 
594 1 20.9596 -8.01788 17.5854 
595 1 -2.43182 -5.67383 13.8314 
596 1 -2.95285 -9.18645 16.2108 
597 1 -1.8545 -8.01403 14.3334 
598 9 -3.2 3.2 16 
599 5 22.4 8.15352 16 
600 3 22.0581 3.41384 16.9383 
601 3 -2.1989 3.40171 15.994 
602 3 22.2687 2.20255 15.8263 
603 8 21.6857 4.07172 14.9748 
604 2 22.0903 3.78957 14.0038 
605 2 20.6344 3.79102 15.0202 
606 6 -2.57696 6.1788 14.7855 
607 5 -2.33643 7.49774 15.1343 
608 7 21.9169 5.51228 15.3055 
609 6 21.0484 6.17689 16.1672 
610 5 21.2917 7.49573 16.5141 
611 1 -1.91191 5.67714 14.089 
612 1 -1.48157 8.01788 14.7212 
613 1 20.1668 5.67383 16.5529 
614 1 -3.0143 9.18645 16.2665 
615 1 20.6101 8.01403 17.1764 
616 10 19.2 0 19.2 
617 4 -3.2 0 19.2 
618 4 19.2 -3.2 19.2 
619 4 19.2 0 -3.2 
620 4 19.2 3.2 19.2 
621 9 22.4 -3.2 22.4 
622 5 -3.2 -8.15352 22.4 
623 3 -2.23281 -3.41384 22.1513 
624 3 22.2963 -3.40171 -2.20427 
625 3 22.2399 -2.20255 22.2524 
626 8 21.4494 -4.07172 21.5891 
627 2 20.4436 -3.78957 21.897 
628 2 21.5972 -3.79102 20.5472 
629 6 21.1305 -6.1788 -2.69846 
630 5 21.4542 -7.49774 -2.42504 
631 7 21.756 -5.51228 21.8514 
632 6 -2.90174 -6.17689 21.0712 
633 5 -2.58017 -7.49573 21.3472 
634 1 20.3724 -5.67714 -2.10456 
635 1 20.9596 -8.01788 -1.61457 
636 1 -2.43182 -5.67383 20.2314 
637 1 -2.95285 -9.18645 -2.98917 
638 1 -1.8545 -8.01403 20.7334 
639 9 -3.2 3.2 -3.2 
640 5 22.4 8.15352 -3.2 
641 3 22.0581 3.41384 -2.26169 
642 3 -2.1989 3.40171 22.394 
643 3 22.2687 2.20255 22.2263 
644 8 21.6857 4.07172 21.3748 
645 2 22.0903 3.78957 20.4038 
646 2 20.6344 3.79102 21.4202 
647 6 -2.57696 6.1788 21.1855 
648 5 -2.33643 7.49774 21.5343 
649 7 21.9169 5.51228 21.7055 
650 6 21.0484 6.17689 -3.03285 
651 5 21.2917 7.49573 -2.68587 
652 1 -1.91191 5.67714 20.489 
653 1 -1.48157 8.01788 21.1212 
654 1 20.1668 5.67383 -2.64712 
655 1 -3.0143 9.18645 -2.93345 
656 1 20.6101 8.01403 -2.02357 
ITEM: TIMESTEP
1000
ITEM: NUMBER OF ATOMS
656
ITEM: BOX BOUNDS pp pp pp
-3.2000000000000002e+00 2.2400000000000002e+01
-4.3779677730546460e+01 4.3779677730546460e+01
-3.2000000000000002e+00 2.2400000000000002e+01
ITEM: ATOMS id type x y z 
1 10 -1.17443 0.00496178 -1.44875 
2 4 2.12484 -0.0125891 -1.22703 
3 4 -0.997024 -2.64718 -1.8281 
4 4 -1.17214 -0.0558103 1.82131 
5 4 -1.23531 2.89709 -1.45508 
6 9 2.29618 -2.47479 1.64127 
7 5 2.32064 -7.45355 2.51688 
8 3 2.70524 -2.72267 0.72671 
9 3 3.06167 -2.52978 2.34215 
10 3 2.04254 -1.47242 1.57393 
11 8 1.08639 -3.34372 2.01638 
12 2 0.676202 -2.93565 2.94527 
13 2 0.309948 -3.21408 1.2554 
14 6 1.57388 -5.33824 3.48602 
15 5 2.01932 -6.66099 3.64445 
16 7 1.43729 -4.81019 2.19927 
17 6 1.72106 -5.59597 1.07203 
18 5 2.16461 -6.92747 1.22684 
19 1 1.4094 -4.69904 4.3565 
20 1 2.18405 -7.0488 4.64721 
21 1 1.64895 -5.15835 0.0745362 
22 1 2.70319 -8.46005 2.65173 
23 1 2.42761 -7.51215 0.35007 
24 9 1.99822 2.20654 2.18428 
25 5 3.7039 7.06109 2.51992 
26 3 1.4002 2.31001 3.02545 
27 3 2.96737 2.08988 2.53731 
28 3 1.72769 1.2998 1.763 
29 8 1.82784 3.37582 1.22472 
30 2 2.24662 3.09724 0.249657 
31 2 0.752399 3.51686 1.10327 
32 6 3.8715 4.75297 1.7746 
33 5 4.48198 5.94749 2.19906 
34 7 2.47168 4.65703 1.71716 
35 6 1.69126 5.75189 2.11038 
36 5 2.29902 6.96612 2.47387 
37 1 4.48649 3.88755 1.52251 
38 1 5.56521 5.99455 2.25535 
39 1 0.606166 5.67145 2.10581 
40 1 4.17231 7.99087 2.82755 
41 1 1.69171 7.82745 2.74534 
42 10 -1.26115 0.0160668 5.08948 
43 4 1.8708 -0.085112 4.83883 
44 4 -1.75911 -3.07543 5.27911 
45 4 -1.01136 0.332017 8.11536 
46 4 -1.20066 3.06807 4.48846 
47 9 2.14694 -2.58374 8.91443 
48 5 1.80026 -7.60552 9.11196 
49 3 3.1721 -2.72504 8.98196 
50 3 1.77493 -2.7588 9.86844 
51 3 2.01334 -1.57167 8.74148 
52 8 1.47336 -3.4797 7.8774 
53 2 0.416861 -3.20065 7.86588 
54 2 1.89082 -3.25922 6.88314 
55 6 0.464832 -5.76915 8.25439 
56 5 0.569699 -7.10753 8.65619 
57 7 1.60331 -4.9476 8.23213 
58 6 2.84311 -5.46025 8.64545 
59 5 2.93664 -6.77827 9.11119 
60 1 -0.501263 -5.34448 7.97709 
61 1 -0.315066 -7.73571 8.67243 
62 1 3.7341 -4.83066 8.64107 
63 1 1.88194 -8.62979 9.46081 
64 1 3.89624 -7.1553 9.45768 
65 9 2.38002 2.56066 8.44626 
66 5 2.90478 7.64618 7.70373 
67 3 2.81331 2.78552 9.36097 
68 3 3.16081 2.47109 7.76593 
69 3 1.97937 1.60893 8.5497 
70 8 1.34304 3.58642 7.97171 
71 2 0.993231 3.24169 6.99309 
72 2 0.481251 3.54568 8.64416 
73 6 1.9447 5.68034 6.63618 
74 5 2.47982 6.97557 6.54405 
75 7 1.86412 5.01943 7.87772 
76 6 2.30324 5.69377 9.03587 
77 5 2.7894 7.00983 8.9512 
78 1 1.64832 5.1407 5.73434 
79 1 2.58629 7.43732 5.56695 
80 1 2.27982 5.1826 10.0008 
81 1 3.33053 8.64235 7.63411 
82 1 3.12737 7.49991 9.86131 
83 10 -1.1959 0.200992 11.374 
84 4 1.89245 0.120293 11.6513 
85 4 -1.06002 -3.22229 11.1128 
86 4 -1.22342 0.166439 14.7138 
87 4 -1.59499 3.07664 11.2226 
88 9 1.92542 -2.19038 15.6014 
89 5 2.23595 -7.32698 15.5245 
90 3 2.91062 -2.18795 15.9208 
91 3 1.36119 -2.40487 16.4388 
92 3 1.68603 -1.21896 15.3291 
93 8 1.65856 -3.16421 14.469 
94 2 0.626307 -2.99141 14.1293 
95 2 2.32119 -2.91685 13.6283 
96 6 0.74203 -5.45193 15.0774 
97 5 0.937096 -6.80696 15.3707 
98 7 1.85392 -4.60582 14.8984 
99 6 3.15558 -5.11744 15.0566 
100 5 3.34425 -6.47289 15.3677 
101 1 -0.260728 -5.03982 14.9464 
102 1 0.0745725 -7.45116 15.495 
103 1 4.01355 -4.45839 14.9132 
104 1 2.38858 -8.37616 15.7571 
105 1 4.35486 -6.85226 15.4902 
106 9 2.48314 2.76986 15.5062 
107 5 2.36465 7.79477 14.7247 
108 3 2.11025 3.03649 16.4362 
109 3 3.50432 2.91143 15.5367 
110 3 2.35688 1.74998 15.4167 
111 8 1.84309 3.52352 14.3516 
112 2 2.29532 3.16336 13.4186 
113 2 0.781535 3.23994 14.3044 
114 6 3.32054 5.57707 14.567 
115 5 3.49689 6.96266 14.6784 
116 7 2.02454 5.02327 14.4963 
117 6 0.902432 5.86195 14.5928 
118 5 1.07094 7.24703 14.6961 
119 1 4.18381 4.91343 14.5451 
120 1 4.49394 7.38789 14.7289 
121 1 -0.0924614 5.41625 14.5838 
122 1 2.4939 8.87038 14.789 
123 1 0.201351 7.89387 14.7594 
124 10 -1.1504 0.431265 17.8823 
125 4 1.99083 0.269553 17.9752 
126 4 -1.28724 -2.85774 17.6856 
127 4 -1.19669 0.432951 20.676 
128 4 -0.94535 3.32794 17.3987 
129 9 2.44756 -2.2894 21.5014 
130 5 2.48514 -7.25944 21.0662 
131 3 3.44195 -2.5794 21.4325 
132 3 2.18042 -2.42896 -3.10424 
133 3 2.42908 -1.2757 21.3186 
134 8 1.55701 -3.08447 20.5399 
135 2 0.509613 -2.80435 20.702 
136 2 1.80763 -2.8041 19.5112 
137 6 1.84253 -5.11334 22.0111 
138 5 2.19639 -6.46095 22.1883 
139 7 1.74986 -4.57439 20.7154 
140 6 1.96137 -5.38361 19.5943 
141 5 2.34636 -6.72538 19.7754 
142 1 1.70402 -4.48862 -2.70744 
143 1 2.32726 -6.85032 -2.40512 
144 1 1.92627 -4.94156 18.5971 
145 1 2.83359 -8.27926 21.203 
146 1 2.61043 -7.31769 18.9074 
147 9 2.13752 2.16446 21.6313 
148 5 2.2883 7.2571 22.1047 
149 3 1.41241 2.24239 -3.23423 
150 3 3.05648 2.22706 22.1069 
151 3 2.0816 1.21317 21.2375 
152 8 1.98434 3.23282 20.5693 
153 2 2.77147 3.06643 19.8282 
154 2 1.02855 3.07409 20.0673 
155 6 3.31572 5.28815 21.1235 
156 5 3.43492 6.59785 21.626 
157 7 2.07359 4.63884 21.1198 
158 6 0.93037 5.29133 21.6084 
159 5 1.04459 6.60608 22.1014 
160 1 4.20321 4.75493 20.7786 
161 1 4.41638 7.06339 21.7074 
162 1 -0.0323484 4.78338 21.6007 
163 1 2.37815 8.26056 -3.09135 
164 1 0.160211 7.09981 -3.10646 
165 10 5.22083 -0.17739 -1.18477 
166 4 8.25206 -0.336022 -0.985906 
167 4 4.68845 -3.4359 -1.31559 
168 4 5.13351 -0.126269 1.81275 
169 4 5.3163 2.97039 -1.70535 
170 9 8.29951 -2.59322 2.4979 
171 5 9.56038 -7.46737 1.71838 
172 3 9.32947 -2.58496 2.37465 
173 3 8.13345 -2.75786 3.51084 
174 3 7.97519 -1.63154 2.2994 
175 8 7.61337 -3.62297 1.59027 
176 2 6.55163 -3.67223 1.85759 
177 2 7.63407 -3.23989 0.566451 
178 6 8.11229 -5.82189 2.74469 
179 5 8.76733 -7.05668 2.79896 
180 7 8.24567 -5.00077 1.60368 
181 6 9.0049 -5.4281 0.512303 
182 5 9.6779 -6.65813 0.571363 
183 1 7.53702 -5.44992 3.59583 
184 1 8.68641 -7.6796 3.68409 
185 1 9.13427 -4.78266 -0.3545 
186 1 10.1228 -8.39483 1.76528 
187 1 10.3451 -6.94096 -0.239613 
188 9 8.30282 2.16365 2.89001 
189 5 8.79217 7.24466 2.15494 
190 3 8.04908 2.40739 3.86645 
191 3 9.34054 2.18986 2.83962 
192 3 8.02379 1.17661 2.76511 
193 8 7.63637 3.07399 1.85007 
194 2 7.91729 2.69512 0.857732 
195 2 6.55092 2.96047 1.92632 
196 6 8.22474 5.30459 0.802415 
197 5 8.61906 6.64922 0.891121 
198 7 8.00665 4.54574 1.96268 
199 6 8.13947 5.16124 3.22131 
200 5 8.55574 6.49879 3.31701 
201 1 8.13982 4.81712 -0.170277 
202 1 8.82476 7.21376 -0.0152261 
203 1 7.98012 4.57177 4.12524 
204 1 9.13146 8.2732 2.22319 
205 1 8.70787 6.93229 4.30295 
206 10 4.89521 -0.289493 5.29839 
207 4 8.18513 -0.291047 5.61091 
208 4 4.95308 -3.3083 5.02175 
209 4 4.79847 -0.0405956 8.33792 
210 4 5.04049 2.78969 5.10481 
211 9 8.26165 -2.6771 8.9341 
212 5 9.55053 -7.67606 8.35003 
213 3 9.2923 -2.63908 9.04426 
214 3 7.86951 -2.84682 9.87932 
215 3 7.93898 -1.72962 8.66454 
216 8 7.80802 -3.72072 7.89719 
217 2 6.71357 -3.75874 7.9395 
218 2 8.07345 -3.35697 6.89853 
219 6 8.62342 -5.64838 9.34629 
220 5 9.16955 -6.94115 9.47586 
221 7 8.39092 -5.11472 8.06891 
222 6 8.76379 -5.85434 6.94393 
223 5 9.36502 -7.12243 7.07309 
224 1 8.39666 -5.0645 10.2407 
225 1 9.35455 -7.32448 10.4752 
226 1 8.62169 -5.43374 5.94831 
227 1 10.0259 -8.64523 8.45816 
228 1 9.69186 -7.65957 6.18727 
229 9 8.53225 2.4891 8.96363 
230 5 7.69484 7.63012 8.70093 
231 3 8.36763 2.64115 9.97652 
232 3 9.53351 2.70115 8.78705 
233 3 8.41746 1.47759 8.77721 
234 8 7.6101 3.33469 8.08462 
235 2 7.8738 3.11262 7.04333 
236 2 6.58782 2.97229 8.23908 
237 6 8.85737 5.48249 8.67322 
238 5 8.8748 6.87388 8.86388 
239 7 7.65939 4.83168 8.3244 
240 6 6.48432 5.59392 8.14783 
241 5 6.50174 6.98703 8.34812 
242 1 9.77294 4.90771 8.795 
243 1 9.80132 7.3645 9.1501 
244 1 5.56218 5.08007 7.8681 
245 1 7.71508 8.70501 8.84558 
246 1 5.58821 7.55329 8.21762 
247 10 5.1936 0.147929 11.7267 
248 4 8.2029 -0.123347 11.7718 
249 4 5.24681 -3.11925 11.3033 
250 4 5.12866 0.152724 14.8879 
251 4 5.11234 3.19542 11.4495 
252 9 9.2825 -2.6959 14.87 
253 5 7.42698 -7.32363 15.9793 
254 3 9.89302 -3.33762 14.3358 
255 3 9.67957 -2.62686 15.8256 
256 3 9.38706 -1.76994 14.4238 
257 8 7.83594 -3.17392 14.8705 
258 2 7.26639 -2.54601 15.5654 
259 2 7.41944 -2.99461 13.8736 
260 6 8.07206 -5.05661 16.5467 
261 5 7.92502 -6.39788 16.9121 
262 7 7.71797 -4.63571 15.2518 
263 6 7.24455 -5.57218 14.3162 
264 5 7.08896 -6.91209 14.6823 
265 1 8.41115 -4.31905 17.2767 
266 1 8.1902 -6.71707 17.9159 
267 1 6.97438 -5.22979 13.319 
268 1 7.31539 -8.36276 16.2706 
269 1 6.71672 -7.62427 13.9529 
270 9 8.51437 2.43092 15.5929 
271 5 8.93554 7.34631 14.9441 
272 3 8.06402 2.87246 16.415 
273 3 9.53287 2.40973 15.7805 
274 3 8.16847 1.45799 15.5645 
275 8 8.15254 3.15411 14.3049 
276 2 8.70195 2.71153 13.473 
277 2 7.08385 2.99016 14.1332 
278 6 9.75754 5.07374 14.6673 
279 5 9.99656 6.42571 14.942 
280 7 8.44779 4.62875 14.4164 
281 6 7.38962 5.55591 14.4145 
282 5 7.63097 6.91225 14.6661 
283 1 10.5783 4.35554 14.6634 
284 1 11.0071 6.7419 15.1716 
285 1 6.38219 5.19198 14.2263 
286 1 9.12691 8.38755 15.1794 
287 1 6.80884 7.6179 14.6695 
288 10 5.37518 -0.0516068 18.0173 
289 4 8.45437 -0.236051 17.9612 
290 4 4.98877 -2.97175 18.0433 
291 4 5.32081 0.013092 20.9959 
292 4 5.37802 3.20543 17.7195 
293 9 9.15271 -2.45265 21.3383 
294 5 8.21513 -7.12911 -2.9751 
295 3 10.1609 -2.6444 21.1822 
296 3 9.01385 -2.50956 22.365 
297 3 9.01859 -1.46195 21.0674 
298 8 8.23039 -3.38426 20.5413 
299 2 7.21676 -2.9701 20.6253 
300 2 8.49013 -3.34777 19.4778 
301 6 7.02805 -5.34816 21.4639 
302 5 7.01003 -6.50494 22.2657 
303 7 8.25195 -4.79709 21.0675 
304 6 9.46118 -5.44077 21.378 
305 5 9.44464 -6.60628 22.1677 
306 1 6.09884 -4.81157 21.2547 
307 1 6.05334 -6.85208 -2.95089 
308 1 10.4154 -4.98344 21.1078 
309 1 8.2041 -7.9883 -2.31148 
310 1 10.3842 -7.05894 -3.12392 
311 9 8.51525 2.4394 22.0888 
312 5 9.40586 7.36729 20.6904 
313 3 8.16514 2.97588 -2.69948 
314 3 9.51362 2.25776 22.2812 
315 3 8.01617 1.53442 22.1225 
316 8 8.29339 3.16438 20.7604 
317 2 8.83785 2.63209 19.9658 
318 2 7.22098 3.07376 20.5421 
319 6 10.0078 5.01952 21.0556 
320 5 10.3681 6.377 20.9815 
321 7 8.68511 4.63377 20.7836 
322 6 7.73591 5.61832 20.4766 
323 5 8.08075 6.98492 20.4295 
324 1 10.7479 4.24628 21.2715 
325 1 11.4028 6.65961 21.1457 
326 1 6.72215 5.30541 20.2328 
327 1 9.69774 8.40983 20.6223 
328 1 7.32977 7.7264 20.1717 
329 10 11.7423 0.00746582 -0.931481 
330 4 14.7391 0.0916785 -0.967003 
331 4 11.8339 -3.12476 -1.56395 
332 4 11.5181 0.00262123 1.98467 
333 4 11.1002 3.03789 -0.943328 
334 9 15.3615 -2.32172 2.15083 
335 5 14.279 -7.01623 3.82121 
336 3 16.3334 -2.51035 1.84751 
337 3 15.3651 -2.34796 3.18779 
338 3 15.1455 -1.34949 1.86825 
339 8 14.3732 -3.33233 1.5606 
340 2 13.3665 -2.90435 1.64893 
341 2 14.5795 -3.42226 0.486762 
342 6 13.1534 -5.26706 2.54785 