LAMMPS (3 Mar 2020)
OMP_NUM_THREADS environment is not set. Defaulting to 1 thread. (src/comm.cpp:94)
  using 1 OpenMP thread(s) per MPI task
Reading data file ...
  orthogonal box = (-3.2 -43.7797 -3.2) to (22.4 43.7797 22.4)
  4 by 8 by 4 MPI processor grid
  reading atoms ...
  656 atoms
  scanning bonds ...
  4 = max bonds/atom
  scanning angles ...
  11 = max angles/atom
  scanning dihedrals ...
  21 = max dihedrals/atom
  reading bonds ...
  576 bonds
  reading angles ...
  960 angles
  reading dihedrals ...
  1248 dihedrals
Finding 1-2 1-3 1-4 neighbors ...
  special bond factors lj:   0          0          0.5       
  special bond factors coul: 0          0          0.833333  
  4 = max # of 1-2 neighbors
  7 = max # of 1-3 neighbors
  14 = max # of 1-4 neighbors
  16 = max # of special neighbors
  special bonds CPU = 0.019863 secs
  read_data CPU = 0.337173 secs
PPPM initialization ...
  using 12-bit tables for long-range coulomb (src/kspace.cpp:332)
  G vector (1/distance) = 0.15861
  grid = 8 18 8
  stencil order = 5
  estimated absolute RMS force accuracy = 0.0216358
  estimated relative force accuracy = 6.51555e-05
  using double precision KISS FFT
  3d grid and FFT values/proc = 392 16
Neighbor list info ...
  update every 1 steps, delay 10 steps, check yes
  max neighbors/atom: 10000, page size: 100000
  master list distance cutoff = 17
  ghost atom cutoff = 17
  binsize = 8.5, bins = 4 11 4
  3 neighbor lists, perpetual/occasional/extra = 3 0 0
  (1) pair buck/coul/long, perpetual, skip from (3)
      attributes: half, newton off
      pair build: skip
      stencil: none
      bin: none
  (2) pair lj/cut/coul/long, perpetual, skip from (3)
      attributes: half, newton off
      pair build: skip
      stencil: none
      bin: none
  (3) neighbor class addition, perpetual
      attributes: half, newton off
      pair build: half/bin/newtoff
      stencil: half/bin/3d/newtoff
      bin: standard
Setting up Verlet run ...
  Unit style    : real
  Current step  : 0
  Time step     : 1
Per MPI rank memory allocation (min/avg/max) = 19.58 | 19.73 | 20.1 Mbytes
Step Temp Volume Density TotEng PotEng E_bond E_angle E_dihed E_coul E_long E_vdwl Enthalpy Press 
       0     298.000000   57382.899195       0.431122   -8970.011871   -9551.836184      18.560582      22.998292       4.401131   -5716.601650   -4576.398885     695.204344   -3629.225159    6381.853911 
    1000      86.209672   57382.899195       0.431122  -10863.109130  -11031.427531      10.488820      26.131011      18.943409   -5990.912165   -4643.058471    -453.020134  -11921.236602   -1264.385813 
    2000      68.474918   57382.899195       0.431122  -10951.800652  -11085.493176      10.099187      29.127383      21.086738   -6080.052454   -4646.442595    -419.311436  -11467.640617    -616.391455 
    3000      59.799059   57382.899195       0.431122  -11002.185515  -11118.939028      10.795723      28.487847      16.754175   -6094.726678   -4646.031900    -434.218195  -11562.833043    -669.933253 
    4000      51.285553   57382.899195       0.431122  -11022.146414  -11122.277897      10.237210      28.069999      18.960784   -6083.771640   -4646.455786    -449.318464  -11493.737501    -563.517246 
    5000      52.070760   57382.899195       0.431122  -11041.527336  -11143.191881       8.516888      27.525221      23.612641   -6111.650579   -4647.421883    -443.774169  -11464.138087    -504.989287 
    6000      45.625504   57382.899195       0.431122  -11056.156480  -11145.237110       7.829878      27.394531      21.760772   -6080.665742   -4647.027924    -474.528626  -11435.284352    -453.030391 
    7000      45.832171   57382.899195       0.431122  -11069.736848  -11159.220980       7.519417      27.596995      21.551798   -6086.125193   -4646.511638    -483.252360  -11503.387423    -518.181078 
    8000      42.339204   57382.899195       0.431122  -11078.429637  -11161.093993       7.816295      26.354196      18.166333   -6098.908547   -4644.934571    -469.587699  -11473.213333    -471.737968 
    9000      41.239161   57382.899195       0.431122  -11087.594601  -11168.111200       8.162132      28.302322      13.945633   -6107.049117   -4644.923365    -466.548805  -11499.204589    -491.844171 
   10000      38.794958   57382.899195       0.431122  -11095.861228  -11171.605690       9.347047      27.026581      18.735490   -6084.551805   -4646.116204    -496.046799  -11576.902852    -574.809956 
Loop time of 11.0638 on 128 procs for 10000 steps with 656 atoms

Performance: 78.093 ns/day, 0.307 hours/ns, 903.850 timesteps/s
99.7% CPU use with 128 MPI tasks x 1 OpenMP threads

MPI task timing breakdown:
Section |  min time  |  avg time  |  max time  |%varavg| %total
---------------------------------------------------------------
Pair    | 0.0026104  | 1.0288     | 4.4702     | 175.4 |  9.30
Bond    | 0.0012165  | 0.062389   | 0.26377    |  42.4 |  0.56
Kspace  | 3.7963     | 7.7003     | 9.3643     |  74.2 | 69.60
Neigh   | 0.037158   | 0.051053   | 0.061643   |   3.1 |  0.46
Comm    | 0.0049022  | 0.57501    | 1.161      |  46.5 |  5.20
Output  | 0.008568   | 0.0085858  | 0.0086167  |   0.0 |  0.08
Modify  | 1.4722     | 1.5036     | 1.5528     |   1.8 | 13.59
Other   |            | 0.1341     |            |       |  1.21

Nlocal:    5.125 ave 23 max 0 min
Histogram: 96 0 0 0 0 0 0 3 13 16
Nghost:    905.023 ave 1762 max 0 min
Histogram: 32 14 18 0 0 0 0 0 32 32
Neighs:    453.195 ave 2892 max 0 min
Histogram: 96 0 0 0 13 3 2 2 11 1

Total # of neighbors = 58009
Ave neighs/atom = 88.4284
Ave special neighs/atom = 8.19512
Neighbor list builds = 76
Dangerous builds = 0
PPPM initialization ...
  using 12-bit tables for long-range coulomb (src/kspace.cpp:332)
  G vector (1/distance) = 0.15861
  grid = 8 18 8
  stencil order = 5
  estimated absolute RMS force accuracy = 0.0216358
  estimated relative force accuracy = 6.51555e-05
  using double precision KISS FFT
  3d grid and FFT values/proc = 392 16
Neighbor list info ...
  update every 1 steps, delay 10 steps, check yes
  max neighbors/atom: 10000, page size: 100000
  master list distance cutoff = 17
  ghost atom cutoff = 17
  binsize = 8.5, bins = 4 11 4
  3 neighbor lists, perpetual/occasional/extra = 3 0 0
  (1) pair buck/coul/long, perpetual, skip from (3)
      attributes: half, newton off
      pair build: skip
      stencil: none
      bin: none
  (2) pair lj/cut/coul/long, perpetual, skip from (3)
      attributes: half, newton off
      pair build: skip
      stencil: none
      bin: none
  (3) neighbor class addition, perpetual
      attributes: half, newton off
      pair build: half/bin/newtoff
      stencil: half/bin/3d/newtoff
      bin: standard
Setting up Verlet run ...
  Unit style    : real
  Current step  : 10000
  Time step     : 1
Per MPI rank memory allocation (min/avg/max) = 19.58 | 19.73 | 20.1 Mbytes
Step Temp Volume Density TotEng PotEng E_bond E_angle E_dihed E_coul E_long E_vdwl Enthalpy Press 
   10000      38.794958   57382.899195       0.431122  -11095.861228  -11171.605690       9.347047      27.026581      18.735490   -6084.551805   -4646.116204    -496.046799  -11576.902852    -574.809956 
   11000      86.135438   56993.730759       0.434066  -10836.743427  -11004.916890      13.461070      37.668566      40.759463   -6091.131815   -4644.611194    -361.062980  -10966.235452    -155.790168 
   12000     303.463384   58910.104432       0.419946   -9965.045017  -10557.536209      34.892485      99.755928     102.180877   -5923.837320   -4642.924853    -227.603326   -9719.511010     285.789303 
   13000     298.854508   57765.795589       0.428265  -10001.839630  -10585.332312      56.351863     103.848187      92.742291   -5979.787635   -4638.498552    -219.988465  -10042.719251     -48.524404 
   14000     290.363333   57270.335072       0.431970  -10018.954057  -10585.868309      60.846165     115.668733     101.797923   -5994.158719   -4638.052081    -231.970330   -9994.031038      29.839740 
   15000     294.468203   56899.427427       0.434786  -10034.206564  -10609.135290      78.754778     129.725417      96.356115   -6009.042787   -4640.665046    -264.263767  -10135.049051    -121.523359 
   16000     293.617179   55895.084282       0.442598  -10048.242137  -10621.509296      80.796722     127.104025      97.443627   -6045.253367   -4637.282109    -244.318194  -10098.688877     -61.884744 
   17000     303.745949   56739.940937       0.436008   -9988.221486  -10581.264366     105.593607     138.065431     127.093003   -6014.020865   -4641.049757    -296.945786  -10227.308423    -288.928963 
   18000     307.572214   54984.414327       0.449928  -10024.873874  -10625.387271     111.061393     151.531365      93.134032   -6084.123459   -4632.814611    -264.175992  -10149.393100    -155.281930 
   19000     294.148486   55116.983635       0.448846  -10081.182550  -10655.487049     103.739497     150.160596     100.265764   -6098.354228   -4637.482268    -273.816411  -10032.924317      60.035770 
   20000     292.230728   55108.341057       0.448917  -10026.365298  -10596.925508     110.151662     167.242790     111.777568   -6099.561156   -4633.178645    -253.357728  -10353.194843    -406.656840 
   21000     286.413104   54243.856782       0.456071  -10092.092619  -10651.294324     117.019278     153.777041      98.254501   -6107.688351   -4638.459171    -274.197622   -9694.120665     503.067218 
   22000     306.975484   55267.773041       0.447622  -10039.411653  -10638.759976     145.272780     160.487696     107.655389   -6119.970554   -4638.251055    -293.954232  -10851.033687   -1006.945520 
   23000     280.106496   54265.721863       0.455887  -10075.451051  -10622.339541     127.816645     185.486992     104.863101   -6150.376002   -4637.175908    -252.954369   -9886.258785     239.057242 
   24000     298.567248   53473.320145       0.462643  -10075.068462  -10658.000288     137.507391     167.662707     103.476839   -6209.432963   -4633.929469    -223.284794   -9785.622544     371.154209 
   25000     294.479684   54717.194407       0.452126  -10065.951555  -10640.902696     149.948877     182.269112     116.833244   -6154.005278   -4640.931912    -295.016739   -9792.490024     342.686133 
   26000     286.840589   54272.722656       0.455828  -10064.724801  -10624.761141     142.147520     189.349397     113.575895   -6135.638506   -4636.980617    -297.214829  -10425.043077    -455.227816 
   27000     291.747898   54777.078707       0.451631  -10031.436821  -10601.054339     146.182800     193.037349     111.997008   -6178.925908   -4637.303776    -236.041812   -9757.558043     342.833793 
   28000     291.839059   54905.058491       0.450579  -10038.171168  -10607.966672     144.225611     199.289177     104.277255   -6149.491277   -4637.465759    -268.801678   -9655.586173     477.792894 
   29000     286.825527   54729.566864       0.452024  -10096.685638  -10656.692570     142.634495     176.589100      95.837883   -6112.066829   -4636.422504    -323.264715  -10052.081912      55.882167 
   30000     286.310704   55187.958140       0.448269  -10028.737348  -10587.739123     160.933315     189.780704     107.970529   -6102.269766   -4639.743394    -304.410511  -10086.396528     -71.638791 
   31000     302.489924   54335.733531       0.455300  -10051.681065  -10642.271645     171.568524     178.447715      94.720073   -6195.653190   -4637.529632    -253.825135   -9930.161895     153.349856 
   32000     285.037261   54091.739454       0.457354  -10071.742346  -10628.257811     166.808774     186.502745     111.987972   -6157.776244   -4637.820898    -297.960160  -10179.778041    -136.949495 
   33000     292.258953   54393.901785       0.454813  -10100.801431  -10671.416748     151.078749     173.946190     107.845059   -6190.793780   -4639.497165    -273.995800   -9848.119879     318.527867 
   34000     290.275376   54415.537179       0.454632  -10034.539947  -10601.282468     173.492641     193.656103     110.959268   -6133.425541   -4635.446775    -310.518164  -10529.096401    -623.185104 
   35000     293.430042   53836.874496       0.459519  -10077.861440  -10650.763227     154.160816     184.802610      94.036362   -6220.412435   -4633.450515    -229.900065   -9940.383951     175.095854 
   36000     297.053071   54869.126927       0.450874  -10044.313348  -10624.288849     162.193409     177.649198     104.043932   -6113.782671   -4638.092784    -316.299933   -9982.092032      77.756240 
   37000     296.680069   53814.687363       0.459708  -10086.735917  -10665.983156     159.126629     173.561738      92.824748   -6184.556461   -4635.950277    -270.989532   -9826.757527     331.253548 
   38000     303.895286   53973.372683       0.458357  -10078.504114  -10671.838564     164.472879     176.187246     100.176955   -6201.791569   -4636.648366    -274.235710  -10413.183664    -425.180884 
   39000     297.394252   54784.726399       0.451568  -10069.341409  -10649.983041     174.354992     173.246300     116.024358   -6141.509691   -4637.224894    -334.874107  -10146.487577     -96.555935 
   40000     293.877125   54336.916741       0.455290  -10059.961325  -10633.736012     154.377091     197.167479     102.409020   -6132.711060   -4639.432893    -315.545649   -9850.057279     264.880465 
   41000     303.371133   53880.766904       0.459144  -10059.639764  -10651.950841     152.724426     184.598488      93.210713   -6212.238704   -4637.296251    -232.949513   -9420.993964     812.737694 
   42000     293.557517   53996.272770       0.458162  -10086.887278  -10660.037953     152.476070     175.584390      99.921077   -6197.548383   -4636.387532    -254.083575   -9799.550233     364.881587 
   43000     314.640131   54595.489146       0.453134   -9997.123763  -10611.436777     184.758343     184.579731     115.889641   -6148.428434   -4639.472123    -308.763937  -10448.818628    -567.299633 
   44000     295.527031   54032.626090       0.457854  -10072.225405  -10649.221418     157.787694     187.157842     104.581293   -6166.103378   -4637.778223    -294.866645   -9837.424871     297.966278 
   45000     295.226455   55018.165562       0.449652  -10089.792037  -10666.201197     148.301272     197.758784      94.813248   -6156.421317   -4641.491935    -309.161249   -9823.860738     331.426675 
   46000     302.569928   54135.247680       0.456986  -10046.572948  -10637.319730     179.898143     185.469064     101.833373   -6177.382061   -4636.555354    -290.582895  -10163.753120    -148.421944 
   47000     290.452295   54285.570979       0.455721  -10074.754295  -10641.842237     160.117878     186.459041     116.532996   -6176.937697   -4639.896988    -288.117467   -9811.790952     332.150501 
   48000     290.091415   54157.094944       0.456802  -10108.196092  -10674.579442     170.073248     181.942982     103.366865   -6146.138536   -4636.785276    -347.038726  -10464.281636    -450.840677 
   49000     296.665849   54317.324442       0.455454  -10062.097296  -10641.316772     181.177083     191.941030     101.213161   -6130.906647   -4640.853170    -343.888230   -9797.944548     333.457796 
   50000     305.979992   54243.614914       0.456073  -10049.305660  -10646.710353     176.613953     179.706695     111.670919   -6191.004097   -4638.344169    -285.353654   -9944.908893     131.966146 
   51000     277.508051   54117.094733       0.457139  -10124.132590  -10665.947796     171.604867     180.453532      90.553494   -6181.068535   -4636.524440    -290.966714  -10321.991912    -250.695279 
   52000     294.551486   53997.818002       0.458149  -10084.470722  -10659.562052     169.200423     172.425987     102.588724   -6197.966163   -4636.270166    -269.540857   -9903.227410     230.149422 
   53000     302.073380   52999.725548       0.466777  -10066.528989  -10656.306294     171.354618     187.849436     101.491220   -6221.519245   -4639.282989    -256.199334   -9630.227717     564.464936 
   54000     297.053769   54155.524862       0.456815  -10071.918349  -10651.895211     171.950692     201.167050      96.946650   -6163.700062   -4637.717161    -320.542380  -10280.376529    -263.937005 
   55000     295.337382   53859.575629       0.459325  -10049.732891  -10626.358627     173.107830     206.616632     106.925054   -6153.894077   -4637.326077    -321.787989  -10085.612367     -45.678021 
   56000     305.810238   53605.652021       0.461501  -10043.998864  -10641.072125     179.318691     182.066446     104.074194   -6189.685725   -4634.541838    -282.303893  -10119.399718     -96.447236 
   57000     297.000005   54084.472973       0.457415  -10071.387345  -10651.259237     178.157369     194.251735      88.625434   -6161.783569   -4636.481516    -314.028689  -10327.899329    -325.206464 
   58000     295.675763   53593.159870       0.461608  -10082.138151  -10659.424553     178.431707     191.254637      93.699300   -6186.002881   -4635.778430    -301.028886  -10151.951635     -89.321098 
   59000     302.860592   53639.462154       0.461210  -10029.412411  -10620.726693     193.894576     194.184863     101.267550   -6170.893277   -4635.802365    -303.378040  -10525.027335    -633.554633 
   60000     283.924748   53868.849320       0.459246  -10093.537659  -10647.881020     179.278765     185.979599     112.580137   -6193.405682   -4639.640063    -292.673777   -9856.332080     301.933507 
   61000     293.261587   54673.381703       0.452488  -10094.924285  -10667.497177     173.472311     199.031921      84.130411   -6122.540778   -4635.896245    -365.694797  -10096.903653      -2.482418 
   62000     294.791194   53713.451045       0.460575  -10098.094942  -10673.654284     166.146663     213.836875      84.289586   -6222.113085   -4637.015272    -278.799052   -9816.472028     359.508400 
   63000     286.366384   54032.403897       0.457856  -10072.437061  -10631.547547     190.543770     209.472047      96.953908   -6178.523208   -4636.028464    -313.965601  -10036.332192      45.817945 
   64000     304.865502   54606.423649       0.453043  -10059.204132  -10654.432862     171.566220     208.430611      90.767577   -6181.267499   -4635.649825    -308.279946  -10313.469084    -319.276444 
   65000     289.557208   54472.529507       0.454156  -10091.414290  -10656.754637     188.478445     190.464180      85.296554   -6150.617366   -4638.540989    -331.835463  -10183.149085    -115.473057 
   66000     306.030472   53394.375998       0.463327  -10074.912365  -10672.415617     176.516383     180.071722      93.392571   -6191.947129   -4638.957583    -291.491581  -10004.145624      90.877797 
   67000     281.528063   54213.219265       0.456329  -10115.135212  -10664.799212     179.786695     191.812649      88.779086   -6178.171980   -4637.094217    -309.911445  -10223.918695    -137.588416 
   68000     301.580427   54745.581525       0.451891  -10069.217246  -10658.032096     164.372403     195.893592     114.251123   -6154.451588   -4639.973067    -338.124559  -10145.588760     -95.654727 
   69000     284.528234   53685.271844       0.460816  -10121.772607  -10677.294232     175.885533     173.511352     109.125757   -6206.402525   -4636.260148    -293.154200   -9973.245385     189.703355 
   70000     297.139259   53659.668858       0.461036  -10094.262988  -10674.406764     185.240232     186.388078      87.260573   -6187.136224   -4636.141593    -310.017830  -10403.694831    -395.404062 
   71000     293.500102   53779.560396       0.460008  -10074.423315  -10647.461890     194.513375     195.106603     102.806414   -6204.210460   -4637.998364    -297.679459  -10099.337460     -31.765292 
   72000     282.873599   54316.491255       0.455461  -10082.946450  -10635.237516     208.105799     195.678386      94.860473   -6200.203948   -4636.045205    -297.633022  -10140.230958     -72.315200 
   73000     282.564197   54636.835280       0.452791  -10085.993586  -10637.680566     182.328554     204.781728      92.730521   -6133.079774   -4637.791802    -346.649791  -10150.214840     -80.596718 
   74000     298.733631   54004.855504       0.458089  -10059.715797  -10642.972474     204.643136     178.226822      88.428065   -6186.110324   -4636.140617    -292.019557   -9865.995668     245.960887 
   75000     299.969459   54487.035874       0.454036  -10089.632543  -10675.302088     173.914265     195.192847     101.370472   -6175.979043   -4639.249087    -330.551543  -10232.712095    -180.056373 
   76000     277.132522   54185.203715       0.456565  -10109.922215  -10651.004227     170.110596     199.194824      95.719625   -6159.527404   -4638.640605    -317.861263   -9587.128323     661.567109 
   77000     295.740209   53969.924815       0.458386  -10059.692724  -10637.104952     194.863381     202.933723     100.977451   -6181.924213   -4641.541224    -312.414069  -10403.969833    -437.401679 
   78000     299.134730   54272.539638       0.455830  -10093.833807  -10677.873603     169.768562     195.858700      97.400311   -6182.208554   -4638.593711    -320.098911  -10001.103639     117.156130 
   79000     284.068739   53305.560611       0.464099  -10106.048434  -10660.672928     181.030555     203.686498     107.133095   -6194.706045   -4638.576662    -319.240369  -10096.702283      12.022212 
   80000     304.421560   53814.971038       0.459706  -10071.248179  -10665.610142     180.042177     188.480766     102.080542   -6186.482797   -4636.690930    -313.039901  -10292.213001    -281.542614 
   81000     280.620009   54272.377244       0.455831  -10124.120176  -10672.011265     186.164536     205.048680      84.829893   -6162.573175   -4639.404994    -346.076206   -9982.918503     178.395998 
   82000     283.266102   53638.044287       0.461222  -10088.864407  -10641.921807     193.909743     196.417582     106.058806   -6190.774957   -4637.082220    -310.450761  -10507.594325    -535.285117 
   83000     292.978720   53731.325904       0.460421  -10118.276024  -10690.296638     166.745153     207.480591      92.639874   -6201.037977   -4637.334482    -318.789797  -10242.647876    -158.715249 
   84000     296.262127   53334.027001       0.463851  -10113.245119  -10691.676355     181.296574     183.563174      97.422933   -6224.452076   -4635.466566    -294.040393  -10079.808575      42.987394 
   85000     298.157873   53457.854232       0.462777  -10049.644297  -10631.776847     199.761837     202.956417     118.533651   -6205.387620   -4638.375361    -309.265770  -10418.330243    -472.899845 
   86000     301.113461   54441.155288       0.454418  -10076.813377  -10664.716507     198.542111     189.651424     100.919155   -6168.730013   -4638.930323    -346.168862   -9855.950243     278.176225 
   87000     291.213185   54802.829284       0.451419  -10110.841908  -10679.415437     188.095649     187.956783      99.101471   -6173.734236   -4638.113852    -342.721251  -10427.315911    -395.967162 
   88000     307.755440   53382.951775       0.463426  -10087.023519  -10687.894653     167.554934     202.663934      94.542313   -6222.153666   -4637.525940    -292.976228  -10462.495796    -482.280167 
   89000     279.716826   53796.375017       0.459865  -10099.523472  -10645.651157     200.224397     201.391130      96.442581   -6221.559055   -4634.451220    -287.698990  -10076.867636      28.876941 
   90000     289.408577   53564.401565       0.461856  -10088.615415  -10653.665571     200.456002     179.345328      99.907348   -6231.613899   -4636.906183    -264.854167   -9634.206580     581.694047 
   91000     285.235834   54007.035685       0.458071  -10126.901933  -10683.805098     179.562528     198.722171     101.321542   -6159.115945   -4640.192566    -364.102828  -10447.811326    -407.432997 
   92000     294.100901   54241.369116       0.456092  -10122.790502  -10697.002096     166.736689     183.333109     106.557407   -6177.016424   -4640.088714    -336.524163  -10423.872735    -380.608599 
   93000     307.658330   53717.694863       0.460538  -10069.856493  -10670.538026     187.548396     194.200330     102.875482   -6213.451872   -4637.318371    -304.391992   -9993.884712      96.974835 
   94000     285.802986   53750.758504       0.460255  -10095.344657  -10653.355149     187.346703     207.987255     101.504221   -6192.155488   -4636.700029    -321.337811   -9928.768147     212.497230 
   95000     293.383214   53850.271613       0.459404  -10136.336631  -10709.146990     171.426114     180.339157      92.600686   -6160.408030   -4639.309918    -353.794998   -9905.662074     293.721615 
   96000     288.587931   53585.291606       0.461676  -10099.679577  -10663.127479     196.674172     187.794597      85.463962   -6177.364206   -4635.953976    -319.742028  -10458.416540    -459.044343 
   97000     308.683444   54041.088888       0.457782  -10080.090410  -10682.773406     178.123081     186.897808      99.618945   -6190.661076   -4640.367595    -316.384569   -9752.279165     415.933467 
   98000     279.657719   54534.515236       0.453640  -10121.620288  -10667.632572     168.933125     209.053969      95.469683   -6147.138916   -4639.869968    -354.080465  -10450.992813    -414.133175 
   99000     299.253316   54200.396648       0.456437  -10063.429510  -10647.700836     202.575593     197.028084      96.316280   -6192.775217   -4636.358595    -314.486981  -10618.603370    -702.345260 
  100000     294.070711   54014.313452       0.458009  -10086.953255  -10661.105906     186.883864     194.265387      97.657722   -6189.948645   -4639.099729    -310.864504   -9839.106633     314.628642 
  101000     297.520892   53472.776245       0.462648  -10087.690177  -10668.579065     212.056399     184.332764      94.957236   -6192.350492   -4636.928463    -330.646510  -10663.348933    -738.170172 
  102000     290.487082   54428.183704       0.454526  -10120.750943  -10687.906805     166.300583     190.929292     106.228622   -6164.651120   -4639.914051    -346.800132   -9914.762523     259.503413 
  103000     297.746657   53903.261282       0.458953  -10089.494523  -10670.824202     185.154739     207.091142      94.078281   -6185.071300   -4636.167210    -335.909853  -10018.422559      90.408109 
  104000     300.807470   53618.810203       0.461388  -10055.089326  -10642.395029     192.790165     217.518381      98.450966   -6184.281218   -4637.816296    -329.057028   -9649.802447     518.286004 
  105000     292.008328   53908.213474       0.458911  -10118.264989  -10688.390979     187.588505     183.992842      85.708528   -6198.186596   -4636.217901    -311.276357  -10089.877900      36.106885 
  106000     310.902793   53963.114569       0.458444  -10065.872146  -10672.888268     185.369020     206.821864      96.405156   -6183.333930   -4637.746411    -340.403965  -10406.460491    -432.769739 
  107000     299.277437   53541.680275       0.462052  -10097.744582  -10682.063002     188.877609     184.606119      87.324300   -6204.318696   -4636.605076    -301.947258  -10025.924728      91.976447 
  108000     295.565788   53742.992917       0.460321  -10063.567950  -10640.639635     194.332821     198.096869      94.309151   -6210.735227   -4636.349549    -280.293700  -10053.423461      12.942925 
  109000     277.327897   53132.060035       0.465614  -10110.876176  -10652.339643     189.971985     202.056870      93.327084   -6218.644767   -4635.752265    -283.298549   -9841.263335     347.942940 
  110000     301.889803   54153.985212       0.456828  -10014.731264  -10604.150149     202.276452     210.161149     107.201392   -6145.022502   -4635.754536    -343.012103  -10180.694551    -210.138543 
Loop time of 138.155 on 128 procs for 100000 steps with 656 atoms

Performance: 62.538 ns/day, 0.384 hours/ns, 723.824 timesteps/s
99.8% CPU use with 128 MPI tasks x 1 OpenMP threads

MPI task timing breakdown:
Section |  min time  |  avg time  |  max time  |%varavg| %total
---------------------------------------------------------------
Pair    | 0.026353   | 10.983     | 51.94      | 575.4 |  7.95
Bond    | 0.012331   | 0.93163    | 4.0132     | 165.0 |  0.67
Kspace  | 45.881     | 92.476     | 109.85     | 232.1 | 66.94
Neigh   | 1.4557     | 1.9117     | 2.2432     |  15.2 |  1.38
Comm    | 0.10323    | 5.8159     | 12.142     | 146.5 |  4.21
Output  | 0.067169   | 0.067262   | 0.068432   |   0.0 |  0.05
Modify  | 24.478     | 24.642     | 24.825     |   1.6 | 17.84
Other   |            | 1.328      |            |       |  0.96

Nlocal:    5.125 ave 29 max 0 min
Histogram: 96 0 0 1 2 6 6 6 9 2
Nghost:    822.5 ave 1583 max 0 min
Histogram: 32 0 32 0 0 0 0 0 32 32
Neighs:    477.203 ave 3037 max 0 min
Histogram: 96 0 1 3 6 5 3 7 4 3

Total # of neighbors = 61082
Ave neighs/atom = 93.1128
Ave special neighs/atom = 8.19512
Neighbor list builds = 2368
Dangerous builds = 0
PPPM initialization ...
  using 12-bit tables for long-range coulomb (src/kspace.cpp:332)
  G vector (1/distance) = 0.159
  grid = 8 18 8
  stencil order = 5
  estimated absolute RMS force accuracy = 0.0216594
  estimated relative force accuracy = 6.52268e-05
  using double precision KISS FFT
  3d grid and FFT values/proc = 392 16
Neighbor list info ...
  update every 1 steps, delay 10 steps, check yes
  max neighbors/atom: 10000, page size: 100000
  master list distance cutoff = 17
  ghost atom cutoff = 17
  binsize = 8.5, bins = 3 11 3
  3 neighbor lists, perpetual/occasional/extra = 3 0 0
  (1) pair buck/coul/long, perpetual, skip from (3)
      attributes: half, newton off
      pair build: skip
      stencil: none
      bin: none
  (2) pair lj/cut/coul/long, perpetual, skip from (3)
      attributes: half, newton off
      pair build: skip
      stencil: none
      bin: none
  (3) neighbor class addition, perpetual
      attributes: half, newton off
      pair build: half/bin/newtoff
      stencil: half/bin/3d/newtoff
      bin: standard
Setting up Verlet run ...
  Unit style    : real
  Current step  : 110000
  Time step     : 1
Per MPI rank memory allocation (min/avg/max) = 19.58 | 19.73 | 20.1 Mbytes
Step Temp Volume Density TotEng PotEng E_bond E_angle E_dihed E_coul E_long E_vdwl Enthalpy Press 
  110000     301.889803   54153.985212       0.456828  -10014.748664  -10604.167549     202.276452     210.161149     107.201392   -6133.723847   -4647.070592    -343.012103  -10180.794440    -210.242989 
  111000     314.027195   54153.985212       0.456828  -10040.051440  -10653.167740     191.736972     183.884962      97.228705   -6132.974584   -4648.770565    -344.273231  -10224.089375    -233.024207 
  112000     310.120404   54153.985212       0.456828  -10058.241207  -10663.729767     189.096897     184.827140     113.058821   -6156.909893   -4649.057974    -344.744758  -10413.583271    -449.925191 
  113000     311.631228   54153.985212       0.456828  -10081.054396  -10689.492737     183.648723     191.141097      92.102041   -6146.688228   -4650.258130    -359.438240  -10316.581900    -298.219005 
  114000     296.844694   54153.985212       0.456828  -10101.121445  -10680.690104     178.093215     190.265394      82.804559   -6146.668406   -4651.024897    -334.159969  -10086.459158      18.565019 
  115000     301.625947   54153.985212       0.456828  -10072.472106  -10661.375830     165.044781     191.099041     120.408803   -6173.292483   -4649.668660    -314.967311   -9907.907440     208.367644 
  116000     286.270385   54153.985212       0.456828  -10066.224087  -10625.147142     188.291165     194.109852     110.930976   -6190.289857   -4646.536796    -281.652482  -10361.687480    -374.108322 
  117000     294.571410   54153.985212       0.456828  -10102.076623  -10677.206853     181.568539     192.410394      83.456641   -6152.139014   -4648.049751    -334.453663   -9950.864561     191.460912 
  118000     297.302347   54153.985212       0.456828  -10060.499563  -10640.961758     178.845341     201.549930     103.275782   -6194.885707   -4646.108036    -283.639068  -10009.552958      64.507311 
  119000     272.554702   54153.985212       0.456828  -10148.111243  -10680.255380     182.791276     181.220856      82.223458   -6161.528100   -4649.166044    -315.796826  -10235.307610    -110.405848 
  120000     303.173441   54153.985212       0.456828  -10060.938935  -10652.864032     198.984699     201.450247      89.951043   -6184.649900   -4646.409181    -312.190940  -10382.206577    -406.781014 
  121000     305.190877   54153.985212       0.456828  -10068.717439  -10664.581441     176.034458     193.992025      90.636931   -6180.673809   -4650.533206    -294.037840   -9812.442351     324.489075 
  122000     302.497763   54153.985212       0.456828  -10099.449870  -10690.055754     157.618709     200.913024      94.802680   -6142.216633   -4648.975915    -352.197619  -10084.620427      18.776669 
  123000     299.650073   54153.985212       0.456828  -10087.546656  -10672.592623     161.008913     199.029278     100.219708   -6143.669226   -4649.132390    -340.048906   -9952.444960     171.062372 
  124000     294.548142   54153.985212       0.456828  -10091.048789  -10666.133591     174.686814     191.762336      98.124570   -6127.570060   -4649.724687    -353.412563  -10483.446233    -496.843780 
  125000     301.663170   54153.985212       0.456828  -10088.213513  -10677.189911     171.399282     201.753457      88.259708   -6170.198943   -4648.209568    -320.193847   -9893.540907     246.489560 
  126000     304.374206   54153.985212       0.456828  -10068.808774  -10663.078282     189.533708     189.651931     100.252579   -6182.162717   -4648.822743    -311.531040  -10318.232732    -315.814346 
  127000     297.344691   54153.985212       0.456828  -10137.928668  -10718.473537     167.624652     188.696754      92.582233   -6180.357842   -4650.299469    -336.719865  -10094.597934      54.864286 
  128000     298.129610   54153.985212       0.456828  -10068.630600  -10650.707969     198.469917     190.681787     100.076890   -6146.379796   -4650.599235    -342.957532  -10580.545468    -648.173739 
  129000     296.129850   54153.985212       0.456828  -10093.498603  -10671.671580     182.733839     189.943424      82.027795   -6161.045774   -4649.470448    -315.860415   -9868.546809     284.828308 
  130000     296.775198   54153.985212       0.456828  -10121.749701  -10701.182675     166.230336     187.384792      98.685838   -6147.832360   -4648.773016    -356.878265  -10425.218739    -384.244868 
  131000     294.938050   54153.985212       0.456828  -10065.490554  -10641.336624     197.418904     200.255331     101.605642   -6158.358704   -4649.385823    -332.871973  -10683.741270    -782.813518 
  132000     288.590905   54153.985212       0.456828  -10091.521376  -10654.975085     189.354984     187.477983     101.057308   -6147.968956   -4648.808054    -336.088350  -10044.967449      58.945413 
  133000     310.128851   54153.985212       0.456828  -10045.836085  -10651.341138     179.786053     212.147266      95.759554   -6168.223723   -4650.868031    -319.942257   -9759.476487     362.581325 
  134000     301.053244   54153.985212       0.456828  -10094.536644  -10682.322204     174.263052     178.602901      97.445385   -6153.902589   -4649.944163    -328.786789   -9939.953061     195.729848 
  135000     310.064561   54153.985212       0.456828  -10051.381927  -10656.761459     173.173657     194.343650      97.055069   -6168.631181   -4649.878330    -302.824323   -9759.878391     369.094450 
  136000     286.807393   54153.985212       0.456828  -10144.469457  -10704.440983     177.273898     167.693975      83.333640   -6167.779472   -4648.251429    -316.711594  -10066.700650      98.468909 
  137000     302.114353   54153.985212       0.456828  -10074.124710  -10663.982012     165.774960     196.054524     104.053737   -6148.858310   -4648.180307    -332.826616  -10373.489581    -379.048275 
  138000     310.762723   54153.985212       0.456828  -10046.693116  -10653.435760     187.448444     195.633145      98.626792   -6172.396251   -4649.593503    -313.154387  -10125.224897     -99.434967 
  139000     300.743313   54153.985212       0.456828  -10105.546424  -10692.726865     165.880266     186.901911      82.461316   -6144.751732   -4647.788597    -335.430029  -10452.790303    -439.671472 
  140000     289.452247   54153.985212       0.456828  -10107.997570  -10673.132988     188.672092     198.205631      92.570283   -6173.262338   -4651.098074    -328.220582  -10094.325123      17.311708 
  141000     300.661519   54153.985212       0.456828  -10075.534858  -10662.555601     165.713318     191.053238     100.031578   -6161.433634   -4650.636479    -307.283623   -9801.723098     346.693568 
  142000     296.857217   54153.985212       0.456828  -10104.933833  -10684.526941     174.594538     188.278490      81.559458   -6148.182057   -4647.133718    -333.643652   -9993.022557     141.699245 
  143000     302.361346   54153.985212       0.456828  -10074.494132  -10664.833670     177.466883     182.544157      93.990988   -6166.745387   -4648.636979    -303.453333   -9911.983770     205.766537 
  144000     289.636782   54153.985212       0.456828  -10099.281756  -10664.777468     171.240959     198.487975      86.518622   -6185.102723   -4647.884367    -288.037933  -10065.404710      42.894265 
  145000     296.952837   54153.985212       0.456828  -10072.501382  -10652.281183     167.042838     210.567947     113.080395   -6190.939750   -4648.255563    -303.777050   -9910.598509     204.997348 
  146000     289.365561   54153.985212       0.456828  -10087.504548  -10652.470719     186.578261     182.247221     100.855171   -6187.058182   -4647.553172    -287.540018  -10457.522778    -468.507783 
  147000     304.887483   54153.985212       0.456828  -10054.283898  -10649.555545     184.700719     177.691776     119.593064   -6174.052008   -4648.861928    -308.627168   -9899.004240     196.611201 
  148000     288.937371   54153.985212       0.456828  -10122.001996  -10686.132156     181.135912     161.821980     108.172639   -6150.266611   -4648.574594    -338.421482  -10310.398738    -238.543219 
  149000     287.883197   54153.985212       0.456828  -10106.420005  -10668.491963     182.160378     180.436345     107.594746   -6155.597872   -4649.379034    -333.706527  -10189.832024    -105.614202 
  150000     289.677193   54153.985212       0.456828  -10083.722757  -10649.297367     181.426444     187.241544     109.479471   -6172.829465   -4648.767017    -305.848344  -10092.050701     -10.544634 
  151000     293.153162   54153.985212       0.456828  -10092.006376  -10664.367574     185.038055     205.793279      89.461544   -6192.850810   -4647.842105    -303.967538   -9905.025179     236.750892 
  152000     304.823125   54153.985212       0.456828  -10059.843384  -10654.989377     187.269342     195.135103     102.405370   -6194.282947   -4646.435340    -299.080904   -9851.397477     263.928969 
  153000     295.985518   54153.985212       0.456828  -10089.026033  -10666.917211     178.142678     212.525623      95.575897   -6173.393235   -4647.663137    -332.105038  -10156.637481     -85.607915 
  154000     292.470798   54153.985212       0.456828  -10085.791548  -10656.820480     177.864341     202.635792      97.273416   -6167.942446   -4650.323575    -316.328009   -9774.596668     394.027136 
  155000     310.623678   54153.985212       0.456828  -10078.459896  -10684.931065     171.880488     183.254528      92.671980   -6160.562624   -4651.693562    -320.481875   -9792.269103     362.367589 
  156000     303.349234   54153.985212       0.456828  -10048.010357  -10640.278679     178.046306     202.810155     104.165930   -6155.400479   -4650.153269    -319.747322  -10083.957123     -45.514891 
  157000     289.937800   54153.985212       0.456828  -10109.142130  -10675.225557     181.984625     182.989529      91.203117   -6131.300368   -4650.247262    -349.855197  -10398.314660    -366.142989 
  158000     286.220396   54153.985212       0.456828  -10105.459416  -10664.284871     181.849744     212.658728      91.482278   -6149.323064   -4649.332089    -351.620468  -10472.138467    -464.279799 
  159000     306.621233   54153.985212       0.456828  -10054.681385  -10653.338057     186.658482     200.812622      96.835783   -6139.127337   -4649.266217    -349.251391   -9906.799642     187.244146 
  160000     306.741524   54153.985212       0.456828  -10092.130918  -10691.022450     162.659139     188.909446      89.406575   -6141.067640   -4648.745632    -342.184339  -10018.895380      92.728998 
  161000     318.163040   54153.985212       0.456828  -10011.717967  -10632.909217     196.596151     190.568128     105.852416   -6143.226543   -4646.244514    -336.454855   -9983.740989      35.423746 
  162000     305.973934   54153.985212       0.456828  -10054.444083  -10651.836950     178.824751     194.114974     109.343535   -6169.656961   -4648.681933    -315.781316   -9967.688653     109.847545 
  163000     303.703076   54153.985212       0.456828  -10062.985734  -10655.944907     190.636271     189.381696     106.000157   -6165.780998   -4649.844956    -326.337077  -10545.249020    -610.629652 
  164000     307.265267   54153.985212       0.456828  -10054.875944  -10654.790048     173.283773     211.091602     102.488226   -6141.066371   -4650.886605    -349.700673  -10080.361759     -32.269498 
  165000     297.514099   54153.985212       0.456828  -10066.783280  -10647.658907     167.703502     194.065125     118.759439   -6139.827392   -4649.078052    -339.281528  -10135.726526     -87.294205 
  166000     295.492561   54153.985212       0.456828  -10066.232936  -10643.161649     179.891609     201.326768     108.587370   -6154.394825   -4651.357182    -327.215388   -9659.442761     515.067496 
  167000     298.129255   54153.985212       0.456828  -10092.210649  -10674.287324     189.956909     191.321777      97.586926   -6151.258446   -4648.104307    -353.790183  -10201.458741    -138.327189 
  168000     306.313913   54153.985212       0.456828  -10022.416132  -10620.472784     204.464308     206.614895     108.812844   -6158.164040   -4650.204853    -331.995938  -10114.113253    -116.104590 
  169000     289.553221   54153.985212       0.456828  -10104.801187  -10670.133751     169.139828     204.054077      89.489558   -6155.934702   -4648.066217    -328.816295  -10217.208472    -142.327279 
  170000     282.478870   54153.985212       0.456828  -10115.057692  -10666.578077     175.887289     203.842420      92.548906   -6142.661098   -4648.848989    -347.346605   -9936.078448     226.619021 
  171000     310.330502   54153.985212       0.456828  -10083.371551  -10689.270314     165.837760     192.072228      96.820404   -6161.509444   -4650.297549    -332.193713  -10013.480975      88.493691 
  172000     301.246099   54153.985212       0.456828  -10068.947969  -10657.110066     186.033097     192.098981     103.738451   -6190.594818   -4650.436200    -297.949577  -10001.223978      85.750415 
  173000     274.437373   54153.985212       0.456828  -10148.176921  -10683.996841     180.886358     195.277136      87.605791   -6179.418058   -4649.727330    -318.620737  -10314.896283    -211.095866 
  174000     300.629871   54153.985212       0.456828  -10053.807335  -10640.766289     172.741753     192.507746     114.833196   -6166.740534   -4648.363159    -305.745290   -9667.490457     489.144722 
  175000     295.112277   54153.985212       0.456828  -10076.232617  -10652.418853     178.075163     211.306427     102.143489   -6159.113804   -4648.076500    -336.753628   -9949.522633     160.436997 
  176000     297.200995   54153.985212       0.456828  -10034.660237  -10614.924550     197.824144     201.001817     103.418957   -6128.396259   -4646.862571    -341.910639  -10577.992281    -687.953378 
  177000     299.823325   54153.985212       0.456828  -10057.586115  -10642.970343     188.206434     203.271316      98.636065   -6136.616690   -4650.071076    -346.396393  -10100.678659     -54.562696 
  178000     296.087930   54153.985212       0.456828  -10087.314514  -10665.405644     174.249891     179.133263      99.875625   -6156.595689   -4649.660581    -312.408153   -9928.956166     200.509360 
  179000     303.888489   54153.985212       0.456828  -10061.147514  -10654.468693     188.877122     195.529791      93.154927   -6173.815309   -4649.149987    -309.065237   -9885.424826     222.495651 
  180000     290.025712   54153.985212       0.456828  -10089.150189  -10655.405259     178.669933     195.359877     100.153424   -6141.323527   -4649.905072    -338.359895  -10374.211374    -360.937308 
  181000     306.236564   54153.985212       0.456828  -10006.115491  -10604.021123     197.163139     195.019874     113.114933   -6115.294080   -4648.722450    -345.302540  -10195.652771    -239.987341 
  182000     276.477575   54153.985212       0.456828  -10115.409256  -10655.212529     188.132295     188.534584      95.346793   -6138.096919   -4650.663432    -338.465850  -10289.900758    -220.936754 
  183000     289.679931   54153.985212       0.456828  -10102.300300  -10667.880258     185.403955     178.176105     107.406778   -6167.326956   -4649.463560    -322.076580  -10321.926545    -278.085231 
  184000     309.139779   54153.985212       0.456828  -10064.991140  -10668.565100     170.885075     191.694738      97.888611   -6161.338322   -4649.024700    -318.670502  -10052.192004      16.205945 
  185000     299.864231   54153.985212       0.456828  -10069.006653  -10654.470749     185.206912     188.924483     101.706929   -6139.176077   -4650.568376    -340.564620  -10208.497806    -176.620192 
  186000     296.686049   54153.985212       0.456828  -10097.081483  -10676.340398     162.238660     172.970096      99.785597   -6145.908693   -4648.967930    -316.458129   -9619.505145     604.695156 
  187000     276.120409   54153.985212       0.456828  -10129.440860  -10668.546791     195.611718     187.333003      94.333710   -6169.388957   -4648.759228    -327.677037  -10264.415017    -170.900885 
  188000     307.585900   54153.985212       0.456828  -10078.646164  -10679.186281     164.082544     191.376931      95.793569   -6166.182753   -4649.277933    -314.978640   -9859.416255     277.583401 
  189000     308.430263   54153.985212       0.456828  -10072.147563  -10674.336241     170.159081     181.194388      98.143189   -6166.003215   -4648.003482    -309.826202   -9819.649074     319.707240 
  190000     275.501283   54153.985212       0.456828  -10158.018043  -10695.915173     166.816774     178.157365      86.953816   -6160.273897   -4649.947050    -317.622181   -9920.359104     300.917776 
  191000     291.296212   54153.985212       0.456828  -10108.587617  -10677.323251     182.923063     184.359733      94.072620   -6183.923235   -4648.238166    -306.517266   -9951.226251     199.247007 
  192000     294.137549   54153.985212       0.456828  -10117.375795  -10691.658941     186.490634     182.479538      88.409191   -6153.985622   -4649.964079    -345.088604  -10369.620825    -319.386317 
  193000     297.454670   54153.985212       0.456828  -10057.555685  -10638.315280     191.570282     209.951296     105.790456   -6143.500751   -4651.266306    -350.860257   -9704.020806     447.636978 
  194000     307.663931   54153.985212       0.456828  -10033.813638  -10634.506107     198.879791     215.736465      89.946100   -6164.167242   -4649.319800    -325.581421  -10299.755454    -336.728843 
  195000     297.275531   54153.985212       0.456828  -10112.562915  -10692.972753     176.045544     175.076984      86.599794   -6196.778906   -4649.297721    -284.618448   -9680.732457     546.772873 
  196000     310.808860   54153.985212       0.456828  -10039.578478  -10646.411202     188.081017     181.762035      93.525648   -6188.497326   -4647.184343    -274.098233   -9693.929645     437.651866 
  197000     300.181586   54153.985212       0.456828  -10052.594317  -10638.678026     205.163388     192.154408      85.091726   -6167.414981   -4648.427530    -305.245037  -10138.969395    -109.365952 
  198000     278.882857   54153.985212       0.456828  -10127.689505  -10672.188923     182.924553     194.620002      87.612234   -6138.129166   -4651.025106    -348.191440  -10260.022129    -167.556243 
  199000     299.978941   54153.985212       0.456828  -10060.487905  -10646.175963     188.569241     198.449764     103.052840   -6133.003448   -4649.524736    -353.719624  -10132.541291     -91.232186 
  200000     324.924894   54153.985212       0.456828  -10017.682900  -10652.076200     179.084000     188.809420     100.798449   -6147.531647   -4649.961899    -323.274522  -10267.227843    -315.967535 
  201000     285.967663   54153.985212       0.456828  -10100.187931  -10658.519942     185.353382     192.328518      93.463120   -6171.447503   -4649.215767    -309.001691  -10204.804671    -132.463086 
  202000     311.214547   54153.985212       0.456828  -10069.182759  -10676.807559     180.935175     188.284924      79.539269   -6130.901294   -4648.510009    -346.155625  -10370.704187    -381.778854 
  203000     289.462403   54153.985212       0.456828  -10087.439575  -10652.594823     177.214988     197.186526      92.819853   -6180.788283   -4645.520301    -293.507606  -10233.091767    -184.421144 
  204000     304.625748   54153.985212       0.456828  -10079.913623  -10674.674250     172.300452     185.323999      93.942462   -6145.467372   -4649.339255    -331.434536  -10413.321019    -422.152065 
  205000     294.424116   54153.985212       0.456828  -10096.735875  -10671.578523     181.271427     195.937473      97.766268   -6149.227124   -4650.076209    -347.250358  -10280.100736    -232.171979 
  206000     286.636431   54153.985212       0.456828  -10107.757673  -10667.395406     201.505233     181.434770      85.167287   -6158.356233   -4649.599257    -327.547206  -10536.252348    -542.549188 
  207000     299.008203   54153.985212       0.456828  -10060.229781  -10644.022541     193.734290     186.899961      97.169533   -6159.343453   -4650.151368    -312.331505  -10099.901211     -50.230967 
  208000     305.956199   54153.985212       0.456828  -10066.937201  -10664.295441     179.587244     196.228903      91.257653   -6152.366348   -4647.440605    -331.562287  -10226.155217    -201.597850 
  209000     299.704474   54153.985212       0.456828  -10061.990018  -10647.142199     197.025286     179.317153     101.546685   -6142.248483   -4650.212235    -332.570605   -9997.489259      81.669240 
  210000     297.832180   54153.985212       0.456828  -10101.863414  -10683.360071     174.173737     184.090655      96.652765   -6165.929025   -4648.750089    -323.598114   -9791.842736     392.540391 
Loop time of 115.016 on 128 procs for 100000 steps with 656 atoms

Performance: 75.120 ns/day, 0.319 hours/ns, 869.446 timesteps/s
99.9% CPU use with 128 MPI tasks x 1 OpenMP threads

MPI task timing breakdown:
Section |  min time  |  avg time  |  max time  |%varavg| %total
---------------------------------------------------------------
Pair    | 0.025922   | 11.033     | 51.626     | 577.5 |  9.59
Bond    | 0.012147   | 0.93814    | 4.1477     | 165.8 |  0.82
Kspace  | 39.072     | 84.949     | 102.18     | 243.1 | 73.86
Neigh   | 1.1648     | 1.5117     | 1.7918     |  15.2 |  1.31
Comm    | 0.082909   | 5.6162     | 11.418     | 147.1 |  4.88
Output  | 0.40442    | 0.4047     | 0.41747    |   0.3 |  0.35
Modify  | 9.6961     | 9.7876     | 9.8637     |   1.1 |  8.51
Other   |            | 0.7759     |            |       |  0.67

Nlocal:    5.125 ave 30 max 0 min
Histogram: 96 0 0 0 4 5 5 9 7 2
Nghost:    824.062 ave 1595 max 0 min
Histogram: 32 10 22 0 0 0 0 0 32 32
Neighs:    478.281 ave 2859 max 0 min
Histogram: 96 0 0 4 8 2 3 4 3 8

Total # of neighbors = 61220
Ave neighs/atom = 93.3232
Ave special neighs/atom = 8.19512
Neighbor list builds = 2068
Dangerous builds = 0
System init for write_restart ...
PPPM initialization ...
  using 12-bit tables for long-range coulomb (src/kspace.cpp:332)
  G vector (1/distance) = 0.159
  grid = 8 18 8
  stencil order = 5
  estimated absolute RMS force accuracy = 0.0216594
  estimated relative force accuracy = 6.52268e-05
  using double precision KISS FFT
  3d grid and FFT values/proc = 392 16
Neighbor list info ...
  update every 1 steps, delay 10 steps, check yes
  max neighbors/atom: 10000, page size: 100000
  master list distance cutoff = 17
  ghost atom cutoff = 17
  binsize = 8.5, bins = 3 11 3
  3 neighbor lists, perpetual/occasional/extra = 3 0 0
  (1) pair buck/coul/long, perpetual, skip from (3)
      attributes: half, newton off
      pair build: skip
      stencil: none
      bin: none
  (2) pair lj/cut/coul/long, perpetual, skip from (3)
      attributes: half, newton off
      pair build: skip
      stencil: none
      bin: none
  (3) neighbor class addition, perpetual
      attributes: half, newton off
      pair build: half/bin/newtoff
      stencil: half/bin/3d/newtoff
      bin: standard
System init for write_data ...
PPPM initialization ...
  using 12-bit tables for long-range coulomb (src/kspace.cpp:332)
  G vector (1/distance) = 0.159
  grid = 8 18 8
  stencil order = 5
  estimated absolute RMS force accuracy = 0.0216594
  estimated relative force accuracy = 6.52268e-05
  using double precision KISS FFT
  3d grid and FFT values/proc = 392 16
Neighbor list info ...
  update every 1 steps, delay 10 steps, check yes
  max neighbors/atom: 10000, page size: 100000
  master list distance cutoff = 17
  ghost atom cutoff = 17
  binsize = 8.5, bins = 3 11 3
  3 neighbor lists, perpetual/occasional/extra = 3 0 0
  (1) pair buck/coul/long, perpetual, skip from (3)
      attributes: half, newton off
      pair build: skip
      stencil: none
      bin: none
  (2) pair lj/cut/coul/long, perpetual, skip from (3)
      attributes: half, newton off
      pair build: skip
      stencil: none
      bin: none
  (3) neighbor class addition, perpetual
      attributes: half, newton off
      pair build: half/bin/newtoff
      stencil: half/bin/3d/newtoff
      bin: standard
Total wall time: 0:04:25
