ITEM: TIMESTEP
10000
ITEM: NUMBER OF ATOMS
656
ITEM: BOX BOUNDS pp pp pp
-3.2000000000000002e+00 2.2400000000000002e+01
-4.3779677730546460e+01 4.3779677730546460e+01
-3.2000000000000002e+00 2.2400000000000002e+01
ITEM: ATOMS id type x y z 
1 10 16.4718 -0.106479 15.7266 
2 4 19.4793 -0.253409 15.023 
3 4 15.7784 -3.0607 15.8661 
4 4 16.7129 0.05643 18.8126 
5 4 16.6078 2.92119 15.1623 
6 9 19.5528 -2.42754 19.7742 
7 5 21.2547 -6.74608 17.7521 
8 3 20.5815 -2.39391 19.6872 
9 3 19.3679 -2.81971 20.7149 
10 3 19.2131 -1.45473 19.8182 
11 8 18.8971 -3.21355 18.6354 
12 2 17.8385 -3.36856 18.8765 
13 2 18.9229 -2.58069 17.7381 
14 6 20.2137 -5.27085 19.3886 
15 5 21.0516 -6.35849 19.0861 
16 7 19.6137 -4.52303 18.3603 
17 6 19.7957 -4.93252 17.0313 
18 5 20.6056 -6.03808 16.7322 
19 1 20.091 -4.97145 20.4265 
20 1 21.5711 -6.8715 19.8929 
21 1 19.3956 -4.31223 16.2277 
22 1 21.9469 -7.5457 17.5076 
23 1 20.8257 -6.26652 15.6924 
24 9 19.8541 2.42628 19.3574 
25 5 20.0257 7.39043 17.7215 
26 3 19.5816 2.84392 20.2645 
27 3 20.8882 2.39847 19.3402 
28 3 19.5298 1.4456 19.4123 
29 8 19.2674 3.15606 18.154 
30 2 19.5824 2.62604 17.2426 
31 2 18.1795 3.0566 18.221 
32 6 19.8248 5.16672 16.786 
33 5 20.0662 6.53416 16.611 
34 7 19.5982 4.6293 18.0552 
35 6 19.5844 5.47764 19.1759 
36 5 19.7727 6.8629 19.0024 
37 1 19.7959 4.50609 15.9202 
38 1 20.2378 6.91526 15.6086 
39 1 19.3893 5.06517 20.1665 
40 1 20.1678 8.45771 17.5853 
41 1 19.7337 7.51812 19.8684 
42 10 16.4237 0.27102 22.1372 
43 4 19.7416 0.0867597 22.3476 
44 4 16.4984 -2.77769 22.0038 
45 4 15.9949 0.352634 -0.360266 
46 4 16.8842 3.11853 21.6549 
47 9 20.5587 -2.43004 -0.277702 
48 5 19.2075 -7.06058 0.984614 
49 3 21.3636 -2.92261 -0.702154 
50 3 20.7249 -2.38472 0.741156 
51 3 20.5995 -1.46058 -0.628732 
52 8 19.2253 -3.06307 -0.630387 
53 2 18.4011 -2.43627 -0.253256 
54 2 19.1747 -3.07667 -1.7205 
55 6 19.3625 -4.65606 1.30298 
56 5 19.3963 -5.95115 1.82919 
57 7 19.1583 -4.45795 -0.0686054 
58 6 18.9638 -5.56406 -0.911772 
59 5 18.9716 -6.86653 -0.387651 
60 1 19.497 -3.79381 1.95727 
61 1 19.5643 -6.08737 2.89424 
62 1 18.7957 -5.38865 -1.97464 
63 1 19.2286 -8.06364 1.40036 
64 1 18.8082 -7.71514 -1.04459 
65 9 20.6721 2.47449 -0.374524 
66 5 19.2798 7.17302 1.0421 
67 3 20.684 2.54087 0.657782 
68 3 21.6292 2.6838 -0.706292 
69 3 20.5142 1.47729 -0.599364 
70 8 19.6085 3.37699 -1.00019 
71 2 19.8224 3.48274 -2.07129 
72 2 18.6491 2.8477 -0.932806 
73 6 20.6622 5.47569 -0.0276476 
74 5 20.548 6.69353 0.666504 
75 7 19.5101 4.73327 -0.330445 
76 6 18.2476 5.20605 0.0573203 
77 5 18.1284 6.42442 0.744827 
78 1 21.6498 5.09519 -0.29378 
79 1 21.4462 7.23894 0.944246 
80 1 17.3617 4.60329 -0.144801 
81 1 19.1955 8.09932 1.60062 
82 1 17.148 6.74807 1.08598 
83 10 16.6987 0.489247 2.68144 
84 4 19.7172 0.165441 2.29798 
85 4 16.2747 -2.54803 2.73332 
86 4 16.8462 0.367228 5.80931 
87 4 15.7618 3.41247 2.67622 
88 9 19.8242 -2.29185 6.63182 
89 5 19.7294 -7.28042 5.79537 
90 3 20.8398 -2.45806 6.73714 
91 3 19.39 -2.55369 7.53532 
92 3 19.7015 -1.2673 6.5477 
93 8 19.2056 -3.0364 5.45224 
94 2 18.1397 -2.79917 5.45077 
95 2 19.6348 -2.64805 4.5173 
96 6 18.2561 -5.37023 5.54147 
97 5 18.4307 -6.75669 5.67885 
98 7 19.3793 -4.52565 5.53939 
99 6 20.6702 -5.04742 5.66514 
100 5 20.8482 -6.42809 5.8027 
101 1 17.2572 -4.93372 5.47041 
102 1 17.5612 -7.40858 5.69297 
103 1 21.5352 -4.38047 5.67311 
104 1 19.8727 -8.35089 5.90521 
105 1 21.8539 -6.82974 5.89882 
106 9 19.8712 2.67254 7.03855 
107 5 18.5891 7.00922 4.85723 
108 3 18.8652 2.4458 7.14209 
109 3 20.1097 3.36437 7.76727 
110 3 20.3981 1.82124 7.2947 
111 8 20.2696 3.1314 5.64661 
112 2 21.3645 3.19347 5.63245 
113 2 19.9834 2.36943 4.91306 
114 6 20.5072 5.5316 4.92989 
115 5 19.9662 6.80222 4.6794 
116 7 19.6727 4.47177 5.30574 
117 6 18.2927 4.6681 5.43506 
118 5 17.7476 5.93851 5.21071 
119 1 21.5747 5.35769 4.81468 
120 1 20.6169 7.616 4.37283 
121 1 17.6359 3.83904 5.70197 
122 1 18.1601 7.98964 4.68342 
123 1 16.6693 6.06631 5.28329 
124 10 16.3968 -0.115019 9.17908 
125 4 19.5224 -0.0730035 9.39371 
126 4 16.4535 -2.94966 8.59813 
127 4 15.974 -0.290746 12.4605 
128 4 16.7318 3.15361 9.15902 
129 9 20.4662 -2.56209 12.1972 
130 5 18.6438 -7.09464 13.2406 
131 3 21.4054 -2.96138 12.0129 
132 3 20.3504 -2.5718 13.2251 
133 3 20.5243 -1.56945 11.9178 
134 8 19.3476 -3.27637 11.4483 
135 2 18.442 -2.65759 11.5342 
136 2 19.5957 -3.33084 10.3832 
137 6 18.2026 -4.73104 13.0613 
138 5 17.988 -5.94538 13.7105 
139 7 19.0711 -4.64812 11.9829 
140 6 19.7407 -5.78051 11.5112 
141 5 19.5295 -7.01878 12.1467 
142 1 17.7325 -3.81681 13.4098 
143 1 17.3205 -5.97776 14.5713 
144 1 20.4561 -5.67561 10.695 
145 1 18.4905 -8.03671 13.7556 
146 1 20.0675 -7.90009 11.8071 
147 9 18.938 2.29404 12.4637 
148 5 20.4394 7.29654 12.7464 
149 3 18.0012 2.63753 12.1897 
150 3 18.9796 2.33097 13.4968 
151 3 18.9552 1.28822 12.2185 
152 8 20.0857 3.07789 11.8267 
153 2 21.0243 2.56962 12.0839 
154 2 19.9651 3.01136 10.7419 
155 6 21.4375 5.10787 12.4646 
156 5 21.5781 6.47888 12.7256 
157 7 20.1742 4.53826 12.2259 
158 6 19.0286 5.34511 12.2858 
159 5 19.1685 6.72083 12.5439 
160 1 22.3214 4.47242 12.4181 
161 1 -3.0315 6.89331 12.8937 
162 1 18.0443 4.9123 12.102 
163 1 20.5404 8.36468 12.9157 
164 1 18.2846 7.35109 12.5506 
165 10 -2.98161 -0.275651 15.5783 
166 4 0.227604 -0.184309 15.9882 
167 4 -2.77561 -3.37135 15.0821 
168 4 22.3267 -0.209163 18.7543 
169 4 -2.97288 2.66224 15.4244 
170 9 1.05496 -2.30228 18.9318 
171 5 0.69551 -7.19854 19.8155 
172 3 1.77349 -2.68347 18.294 
173 3 1.48342 -2.30183 19.8727 
174 3 0.930507 -1.30993 18.6795 
175 8 -0.254389 -3.07965 18.8913 
176 2 -0.953129 -2.62445 19.598 
177 2 -0.696171 -2.9686 17.8945 
178 6 0.165073 -4.94306 20.5601 
179 5 0.488755 -6.2761 20.8616 
180 7 -0.00480708 -4.53761 19.2239 
181 6 0.214256 -5.45703 18.1915 
182 5 0.558409 -6.79645 18.479 
183 1 0.0668949 -4.20041 21.3521 
184 1 0.634456 -6.57115 21.8987 
185 1 0.141356 -5.12173 17.1549 
186 1 0.989955 -8.21551 20.0492 
187 1 0.728966 -7.49292 17.6625 
188 9 0.780794 2.36473 19.0811 
189 5 -0.53416 7.35896 19.092 
190 3 0.727963 2.49958 20.1073 
191 3 1.72927 2.65826 18.7833 
192 3 0.749986 1.34826 18.9002 
193 8 -0.316345 3.10592 18.3346 
194 2 -0.153341 2.95829 17.2647 
195 2 -1.27542 2.63563 18.5816 
196 6 0.791088 5.3397 18.8622 
197 5 0.717336 6.7197 19.1023 
198 7 -0.377061 4.58767 18.637 
199 6 -1.61866 5.23161 18.6217 
200 5 -1.69732 6.61695 18.8239 
201 1 1.76295 4.84664 18.8418 
202 1 1.62992 7.27793 19.2893 
203 1 -2.52079 4.64564 18.4392 
204 1 -0.605432 8.42544 19.2798 
205 1 -2.66874 7.10032 18.8117 
206 10 -2.67037 -0.0435199 21.896 
207 4 0.384251 -0.0869783 21.7021 
208 4 -3.15069 -3.20236 22.0704 
209 4 -2.37676 -0.0693044 -0.451915 
210 4 -2.80977 3.00881 21.8183 
211 9 0.508505 -2.27129 0.401583 
212 5 0.99728 -7.24854 -0.500656 
213 3 1.39342 -2.35493 0.936484 
214 3 -0.252621 -2.60171 1.01768 
215 3 0.359897 -1.25604 0.283553 
216 8 0.537145 -2.98502 -0.941549 
217 2 -0.374331 -2.73335 -1.49633 
218 2 1.36765 -2.58668 -1.52731 
219 6 -0.435808 -5.31487 -0.832814 
220 5 -0.284758 -6.70003 -0.703551 
221 7 0.689255 -4.47144 -0.78033 
222 6 1.96284 -5.01368 -0.58541 
223 5 2.12186 -6.40172 -0.448496 
224 1 -1.42139 -4.87367 -0.989506 
225 1 -1.1599 -7.34204 -0.745634 
226 1 2.83416 -4.35699 -0.559183 
227 1 1.11875 -8.32126 -0.382666 
228 1 3.12062 -6.8038 -0.298767 
229 9 0.446877 2.36695 0.287252 
230 5 1.00174 7.31259 -0.814139 
231 3 0.0978643 2.6034 1.23392 
232 3 1.47063 2.50801 0.302232 
233 3 0.29424 1.35245 0.168315 
234 8 -0.214812 3.18281 -0.816696 
235 2 0.0738358 2.74121 -1.7807 
236 2 -1.29856 3.08971 -0.716813 
237 6 0.39876 5.28059 -2.00091 
238 5 0.825843 6.61374 -2.02058 
239 7 0.151577 4.64179 -0.787339 
240 6 0.249225 5.36186 0.419505 
241 5 0.660638 6.70122 0.402655 
242 1 0.294027 4.72372 -2.93367 
243 1 1.06878 7.0779 -2.97254 
244 1 0.0420685 4.858 1.36489 
245 1 1.37247 8.33232 -0.833777 
246 1 0.769488 7.23365 1.34155 
247 10 -2.77242 -0.0633085 2.9452 
248 4 0.350489 -0.00201596 3.13059 
249 4 -2.66212 -3.05244 2.7582 
250 4 -2.97018 -0.0688506 5.96841 
251 4 -2.71426 3.05013 2.60934 
252 9 1.31912 -2.24747 6.12804 
253 5 0.482052 -7.1025 7.32465 
254 3 2.31107 -2.49928 5.95941 
255 3 1.20669 -2.22458 7.15386 
256 3 1.22758 -1.28611 5.76836 
257 8 0.347327 -3.21046 5.45404 
258 2 -0.66018 -2.78819 5.56579 
259 2 0.567992 -3.22234 4.38087 
260 6 -0.794349 -5.24351 6.4311 
261 5 -0.755301 -6.47947 7.09663 
262 7 0.390919 -4.62431 6.00958 
263 6 1.61527 -5.28886 6.1653 
264 5 1.66272 -6.52802 6.82983 
265 1 -1.73938 -4.71404 6.31003 
266 1 -1.67271 -6.89514 7.5067 
267 1 2.53611 -4.80151 5.84681 
268 1 0.527409 -8.02427 7.89566 
269 1 2.62573 -6.99441 7.01496 
270 9 0.782672 2.30463 6.32752 
271 5 0.608387 7.27878 6.98556 
272 3 0.497477 2.28814 7.3234 
273 3 1.78458 2.56921 6.33795 
274 3 0.738452 1.33935 5.96256 
275 8 -0.075231 3.28193 5.53206 
276 2 0.200561 3.20144 4.47287 
277 2 -1.1242 2.98269 5.63481 
278 6 1.44378 5.20353 6.02834 
279 5 1.67636 6.4996 6.50262 
280 7 0.133508 4.70135 6.00019 
281 6 -0.938033 5.47937 6.46169 
282 5 -0.697238 6.76445 6.97941 
283 1 2.28186 4.57901 5.71706 
284 1 2.69672 6.87096 6.54963 
285 1 -1.94482 5.06586 6.46433 
286 1 0.801899 8.27039 7.38171 
287 1 -1.52448 7.34359 7.38058 
288 10 -2.4967 -0.117259 9.17268 
289 4 0.535316 -0.0969474 9.12622 
290 4 -2.89804 -3.09996 9.07711 
291 4 -2.4602 -0.235856 12.2881 
292 4 -2.63912 2.89845 8.98442 
293 9 0.477915 -2.4644 13.1514 
294 5 2.31268 -6.99065 12.0766 
295 3 1.50551 -2.50543 13.2628 
296 3 0.0707437 -2.71081 14.0719 
297 3 0.236555 -1.47326 12.9925 
298 8 -0.0248107 -3.37356 12.0253 
299 2 -1.11521 -3.46386 12.0904 
300 2 0.185977 -2.86976 11.074 
301 6 0.866893 -5.40734 13.2431 
302 5 1.72425 -6.51862 13.2648 
303 7 0.644229 -4.72742 12.0399 
304 6 1.19163 -5.22363 10.8472 
305 5 2.01716 -6.35648 10.8579 
306 1 0.470933 -5.00669 14.1764 
307 1 1.9817 -6.97262 14.2174 
308 1 1.03046 -4.66921 9.92087 
309 1 3.01395 -7.81892 12.1059 
310 1 2.5001 -6.67277 9.93656 
311 9 0.275803 2.23381 13.3456 
312 5 1.0028 7.17089 12.288 
313 3 -0.0671867 2.47256 14.2938 
314 3 1.30461 2.33732 13.3702 
315 3 0.0813703 1.2272 13.2275 
316 8 -0.371368 3.06737 12.2459 
317 2 -0.127803 2.59216 11.2868 
318 2 -1.45882 3.01642 12.3629 
319 6 0.536543 5.11022 11.0674 
320 5 1.02725 6.42882 11.0905 
321 7 0.0842936 4.51191 12.2503 
322 6 0.112821 5.22673 13.4572 
323 5 0.553346 6.56507 13.473 
324 1 0.532786 4.54117 10.137 
325 1 1.42657 6.8592 10.1755 
326 1 -0.189521 4.74392 14.389 
327 1 1.37698 8.1905 12.3 
328 1 0.57521 7.10253 14.417 
329 10 3.52757 -0.0356493 15.6668 
330 4 6.69358 0.14262 15.3861 
331 4 3.25295 -3.00519 15.6866 
332 4 3.71251 0.0569375 18.8006 
333 4 2.94944 2.99666 15.818 
334 9 6.72931 -2.37068 19.7137 
335 5 7.81757 -7.18083 18.5987 
336 3 7.71861 -2.16012 19.9229 
337 3 6.4097 -2.96049 20.5011 
338 3 6.20167 -1.48803 19.7829 
339 8 6.55008 -3.05893 18.3695 
340 2 5.48664 -2.99272 18.132 
341 2 7.10376 -2.49332 17.6075 
342 6 6.06918 -5.54081 18.1878 
343 5 6.48194 -6.87722 18.2673 
344 7 6.99547 -4.50653 18.4101 
345 6 8.31648 -4.81881 18.7533 
346 5 8.73589 -6.15344 18.8611 
347 1 5.0384 -5.28015 17.949 
348 1 5.76837 -7.67351 18.0882 
349 1 9.03707 -4.01772 18.925 
350 1 8.13504 -8.21672 18.6588 
351 1 9.76759 -6.3669 19.1297 
352 9 6.56066 2.29181 19.5586 
353 5 6.66279 7.15403 19.1597 
354 3 5.6885 2.52784 20.0553 
355 3 7.3507 2.53436 20.1827 
356 3 6.57322 1.26439 19.4575 
357 8 6.62824 2.97927 18.2108 
358 2 7.51606 2.63459 17.6757 
359 2 5.75692 2.67333 17.6254 
360 6 7.86862 5.1321 18.558 
361 5 7.88032 6.48082 18.9334 
362 7 6.6478 4.46354 18.4171 
363 6 5.43744 5.12044 18.6828 
364 5 5.4402 6.46883 19.0487 
365 1 8.80101 4.58219 18.4362 
366 1 8.82864 6.99258 19.074 
367 1 4.50504 4.55429 18.6369 
368 1 6.67731 8.19284 19.4729 
369 1 4.50296 6.96156 19.285 
370 10 3.56059 0.0531731 22.1407 
371 4 6.67482 0.158241 22.3601 
372 4 3.73548 -3.06312 21.7555 
373 4 3.15372 0.0588827 -0.385614 
374 4 3.33392 3.12812 21.6899 
375 9 7.31584 -2.18711 0.0100348 
376 5 6.84383 -7.3347 0.0234947 
377 3 8.27697 -2.47666 -0.256862 
378 3 7.29548 -2.18633 1.04487 
379 3 7.23393 -1.19984 -0.285333 
380 8 6.23447 -3.07952 -0.608964 
381 2 5.25375 -2.74344 -0.245916 
382 2 6.27079 -2.90456 -1.68863 
383 6 6.53656 -5.08842 0.940028 
384 5 6.77806 -6.46682 1.12957 
385 7 6.4338 -4.56761 -0.360454 
386 6 6.57929 -5.42472 -1.46365 
387 5 6.75158 -6.8116 -1.28014 
388 1 6.4618 -4.41976 1.80133 
389 1 6.89002 -6.85045 2.13923 
390 1 6.53815 -5.00553 -2.47056 
391 1 7.00222 -8.39892 0.170245 
392 1 6.84956 -7.46178 -2.14665 
393 9 7.57141 2.6873 -0.32963 
394 5 5.69887 7.14435 1.1103 
395 3 7.50029 2.79024 0.700224 
396 3 8.5425 2.94195 -0.580332 
397 3 7.48873 1.67393 -0.51834 
398 8 6.51182 3.50228 -1.06656 
399 2 6.79069 3.58106 -2.1249 
400 2 5.57536 2.92416 -1.03127 
401 6 7.31447 5.61691 0.133627 
402 5 7.03403 6.74048 0.924487 
403 7 6.26609 4.86235 -0.437475 
404 6 4.9423 5.28183 -0.274888 
405 5 4.65864 6.42498 0.497617 
406 1 8.33917 5.25936 0.0453114 
407 1 7.84551 7.25071 1.43805 
408 1 4.11835 4.67655 -0.660265 
409 1 5.47201 7.98699 1.75582 
410 1 3.62104 6.67964 0.693371 
411 10 3.69471 0.409767 2.84307 
412 4 6.80548 0.44993 2.54125 
413 4 3.63614 -2.63004 3.08683 
414 4 3.87661 0.366112 5.97322 
415 4 3.15348 3.30366 2.66056 
416 9 6.6556 -2.02507 6.66509 
417 5 6.90849 -7.13538 5.63496 
418 3 6.91058 -2.34508 7.61836 
419 3 5.62749 -2.09079 6.59241 
420 3 6.89072 -1.02122 6.62711 
421 8 7.34053 -2.82272 5.57322 
422 2 6.98145 -2.44189 4.60727 
423 2 8.40556 -2.60155 5.64936 
424 6 5.9061 -4.91437 5.69881 
425 5 5.76315 -6.3141 5.68917 
426 7 7.17615 -4.32427 5.64651 
427 6 8.31111 -5.14437 5.57437 
428 5 8.18415 -6.54204 5.56602 
429 1 5.02605 -4.27475 5.74358 
430 1 4.76705 -6.74833 5.70399 
431 1 9.29139 -4.67044 5.50916 
432 1 6.80495 -8.21671 5.6187 
433 1 9.07498 -7.1603 5.5071 
434 9 6.68277 2.6882 6.77866 
435 5 7.39479 7.62149 5.71961 
436 3 5.9054 3.03562 7.36708 
437 3 7.56012 2.82713 7.30972 
438 3 6.54489 1.66566 6.72 
439 8 6.71638 3.34996 5.39486 
440 2 7.52679 2.89282 4.81873 
441 2 5.7878 3.10723 4.86553 
442 6 8.17353 5.33308 5.93155 
443 5 8.40254 6.71168 6.07109 
444 7 6.93848 4.85072 5.46057 
445 6 5.92331 5.75955 5.11664 
446 5 6.15476 7.14566 5.24069 
447 1 8.96314 4.62385 6.19234 
448 1 9.36452 7.05738 6.44051 
449 1 4.97081 5.39093 4.73808 
450 1 7.55512 8.68937 5.83482 
451 1 5.36995 7.84881 4.97364 
452 10 3.48942 0.11552 9.47468 
453 4 6.57905 0.164121 9.66411 
454 4 3.745 -2.93391 8.71872 
455 4 3.18034 0.0851262 12.506 
456 4 3.41979 3.07061 9.02946 
457 9 7.35421 -1.94748 12.3488 
458 5 7.49771 -6.81853 12.7125 
459 3 7.85398 -2.11785 11.4574 
460 3 8.0211 -2.14379 13.117 
461 3 7.15323 -0.93715 12.3857 
462 8 6.08119 -2.77528 12.4551 
463 2 5.55416 -2.46658 13.3578 
464 2 5.42587 -2.55544 11.6076 
465 6 6.67708 -4.80009 13.7815 
466 5 7.19579 -6.09545 13.8837 
467 7 6.42817 -4.23628 12.5234 
468 6 6.71007 -4.9571 11.3512 
469 5 7.2692 -6.24251 11.4486 
470 1 6.51915 -4.2019 14.6804 
471 1 7.4221 -6.50387 14.8666 
472 1 6.56645 -4.47931 10.3776 
473 1 7.95646 -7.79896 12.7932 
474 1 7.54912 -6.76927 10.5403 
475 9 7.68717 2.49674 12.4956 
476 5 5.37846 6.67869 14.3225 
477 3 7.69194 2.37258 13.523 
478 3 8.55791 2.99093 12.2382 
479 3 7.77181 1.56652 12.0644 
480 8 6.42255 3.19659 11.9989 
481 2 6.51721 3.38618 10.9223 
482 2 5.58686 2.49568 12.1129 
483 6 7.09364 5.26728 13.335 
484 5 6.73464 6.36808 14.1248 
485 7 6.09322 4.47338 12.7414 
486 6 4.74522 4.78983 12.9322 
487 5 4.38287 5.8729 13.7489 
488 1 8.14423 5.00272 13.228 
489 1 7.50661 6.94798 14.6232 
490 1 3.97609 4.13034 12.5232 
491 1 5.09709 7.49754 14.9762 
492 1 3.33367 6.03105 13.9823 
493 10 9.85093 0.048254 15.817 
494 4 13.1109 0.128234 16.1337 
495 4 9.92203 -2.91956 15.4226 
496 4 9.56931 0.00227076 18.896 
497 4 10.0409 3.15151 15.5366 
498 9 13.9671 -2.22794 19.1463 
499 5 12.6119 -7.07259 19.6068 
500 3 14.6827 -2.6989 18.5724 
501 3 14.3022 -2.25943 20.1212 
502 3 13.9902 -1.23267 18.8676 
503 8 12.5742 -2.81684 18.9945 
504 2 11.8998 -2.32207 19.6995 
505 2 12.2163 -2.59537 17.9876 
506 6 12.641 -4.81932 20.5282 
507 5 12.6525 -6.20638 20.7162 
508 7 12.5686 -4.2973 19.2276 
509 6 12.5717 -5.15269 18.1215 
510 5 12.5885 -6.54543 18.303 
511 1 12.6855 -4.14004 21.3804 
512 1 12.6933 -6.60387 21.7266 
513 1 12.5508 -4.7156 17.1222 
514 1 12.6365 -8.1474 19.7568 
515 1 12.588 -7.19919 17.4348 
516 9 12.3382 2.56156 18.7924 
517 5 14.0484 7.47125 18.8471 
518 3 11.9584 2.75834 17.8503 
519 3 11.6587 2.89282 19.4967 
520 3 12.3633 1.5296 18.8811 
521 8 13.7291 3.16575 18.9865 
522 2 14.085 2.84255 19.9648 
523 2 14.4107 2.72362 18.2437 
524 6 14.9738 5.26858 18.4356 
525 5 15.1068 6.66387 18.4071 
526 7 13.7975 4.68121 18.9127 
527 6 12.7693 5.48643 19.4277 
528 5 12.8928 6.88446 19.3887 
529 1 15.7998 4.63524 18.1076 
530 1 16.0305 7.09911 18.0369 
531 1 11.8879 5.04088 19.8816 
532 1 14.14 8.55138 18.8139 
533 1 12.0855 7.50437 19.7678 
534 10 9.99188 0.0582926 22.1024 
535 4 13.1964 0.105293 21.7649 
536 4 9.47242 -2.9479 22.2547 
537 4 10.2037 0.15611 -0.411191 
538 4 9.83427 3.16619 21.8981 
539 9 13.1099 -1.79531 0.352495 
540 5 13.0909 -6.88064 0.363926 
541 3 14.0181 -1.85248 0.846797 
542 3 12.3634 -1.95253 1.05347 
543 3 13.0343 -0.811794 0.0502624 
544 8 13.0293 -2.74597 -0.829652 
545 2 12.1132 -2.51908 -1.37744 
546 2 13.8636 -2.51258 -1.49954 
547 6 11.8394 -4.88153 -0.224744 
548 5 11.8576 -6.23236 0.155929 
549 7 13.042 -4.19659 -0.425733 
550 6 14.2694 -4.83742 -0.216955 
551 5 14.2966 -6.17171 0.202512 
552 1 10.8895 -4.36485 -0.370335 
553 1 10.9141 -6.75385 0.297696 
554 1 15.1951 -4.27359 -0.343759 
555 1 13.1127 -7.92004 0.675093 
556 1 15.2518 -6.64848 0.404413 
557 9 13.0804 2.8183 0.387279 
558 5 14.1687 7.12572 -2.36546 
559 3 12.9665 3.39868 1.23838 
560 3 14.0937 2.63615 0.292048 
561 3 12.6328 1.91934 0.627957 
562 8 12.4549 3.43656 -0.860059 
563 2 12.5669 2.70966 -1.67307 
564 2 11.383 3.54337 -0.671251 
565 6 14.4341 4.90752 -1.39233 
566 5 14.9956 6.06965 -1.94186 
567 7 13.0424 4.76244 -1.29702 
568 6 12.2136 5.81592 -1.70378 
569 5 12.7753 6.99605 -2.23639 
570 1 15.0796 4.06863 -1.12534 
571 1 16.0722 6.11456 -2.10074 
572 1 11.1345 5.68542 -1.66528 
573 1 14.6066 8.00976 -2.81919 
574 1 12.1158 7.78246 -2.58762 
575 10 9.96223 0.367294 2.99474 
576 4 13.0085 0.306411 3.17648 
577 4 9.82009 -2.61818 2.67812 
578 4 9.7121 0.438696 6.07988 
579 4 10.0151 3.36963 2.47093 
580 9 14.135 -2.03156 5.76112 
581 5 12.2711 -6.73026 4.90792 
582 3 14.1612 -1.95742 4.73237 
583 3 14.9916 -2.54933 6.02113 
584 3 14.2345 -1.07557 6.1249 
585 8 12.8476 -2.67817 6.24721 
586 2 12.836 -2.66444 7.34197 
587 2 12.0013 -2.07764 5.89469 
588 6 12.4163 -5.10859 6.70939 
589 5 12.2023 -6.42591 6.28225 
590 7 12.6852 -4.09766 5.77479 
591 6 12.7824 -4.40886 4.40925 
592 5 12.561 -5.71958 3.96973 
593 1 12.3391 -4.83819 7.7628 
594 1 11.9726 -7.19415 7.01454 
595 1 12.9834 -3.61518 3.68677 
596 1 12.0897 -7.74445 4.56702 
597 1 12.5867 -5.93052 2.90417 
598 9 14.0613 2.5369 6.08488 
599 5 13.4546 7.43563 7.0092 
600 3 14.5742 2.54833 6.98573 
601 3 14.6904 2.93885 5.37174 
602 3 13.9425 1.54666 5.82002 
603 8 12.7187 3.26345 6.15196 
604 2 12.1828 3.10109 5.20728 
605 2 12.1192 2.80461 6.94533 
606 6 12.9706 5.68294 5.38568 
607 5 13.2696 7.02964 5.67304 
608 7 12.9014 4.74149 6.42638 
609 6 13.1208 5.14809 7.74628 
610 5 13.3587 6.49687 8.0453 
611 1 12.8382 5.34969 4.35355 
612 1 13.353 7.7514 4.86469 
613 1 13.0948 4.40452 8.54589 
614 1 13.6729 8.47413 7.23878 
615 1 13.5103 6.7986 9.07886 
616 10 10.1536 0.219667 9.13113 
617 4 13.3275 0.188263 8.93799 
618 4 9.62725 -2.74921 9.02704 
619 4 10.3447 0.129753 12.432 
620 4 9.69548 3.16166 9.38873 
621 9 13.0323 -2.56085 13.4067 
622 5 14.4879 -6.68476 10.6237 
623 3 14.0485 -2.41249 13.5259 
624 3 12.742 -3.23151 14.1381 
625 3 12.5743 -1.67042 13.6593 
626 8 12.6736 -3.0102 11.9924 
627 2 11.5826 -3.11403 11.9472 
628 2 12.9413 -2.20477 11.2987 
629 6 12.5387 -5.25739 10.9078 
630 5 13.1135 -6.45106 10.448 
631 7 13.3269 -4.29874 11.551 
632 6 14.7062 -4.51899 11.7094 
633 5 15.2859 -5.7161 11.2534 
634 1 11.4814 -5.05854 10.7445 
635 1 12.496 -7.17745 9.92968 
636 1 15.3376 -3.73954 12.1354 
637 1 14.9389 -7.59113 10.2337 
638 1 16.3628 -5.84932 11.3108 
639 9 13.312 2.14313 13.1823 
640 5 12.9605 7.15921 12.7716 
641 3 12.4678 2.30802 13.7586 
642 3 14.1268 2.36687 13.7701 
643 3 13.3428 1.12307 13.0179 
644 8 13.3008 2.93159 11.8781 
645 2 14.209 2.67225 11.3241 
646 2 12.4497 2.59623 11.2816 
647 6 14.323 5.2636 12.0522 
648 5 14.1996 6.63308 12.3682 
649 7 13.1992 4.42316 12.122 
650 6 11.9562 4.95956 12.4812 
651 5 11.825 6.32141 12.8063 
652 1 15.293 4.83977 11.7896 
653 1 15.0829 7.26328 12.3325 
654 1 11.0843 4.30716 12.5128 
655 1 12.8735 8.20147 13.062 
656 1 10.8553 6.70307 13.1182 
ITEM: TIMESTEP
11000
ITEM: NUMBER OF ATOMS
656
ITEM: BOX BOUNDS pp pp pp
-3.0120623021530264e+00 2.2212062302153029e+01
-4.3779677730546460e+01 4.3779677730546460e+01
-3.1671539891224914e+00 2.2367153989122503e+01
ITEM: ATOMS id type x y z 
1 10 14.1771 0.0572779 13.0624 
2 4 17.0481 -0.124848 12.6822 
3 4 13.5319 -3.26687 13.1249 
4 4 14.2999 0.274682 15.9485 
5 4 14.2199 3.01282 12.4094 
6 9 17.1828 -2.40361 16.8602 
7 5 18.765 -6.91223 15.782 
8 3 18.1889 -2.60792 17.0007 
9 3 16.7179 -2.54904 17.7785 
10 3 17.0948 -1.39443 16.6562 
11 8 16.5526 -3.25124 15.7804 
12 2 15.4695 -3.25867 15.9422 
13 2 16.734 -2.7661 14.8161 
14 6 17.3298 -5.36933 16.9626 
15 5 18.1459 -6.51529 16.9802 
16 7 17.1396 -4.64102 15.7652 
17 6 17.75 -5.04751 14.5655 
18 5 18.5815 -6.17076 14.5891 
19 1 16.8785 -5.01598 17.8888 
20 1 18.3355 -7.04046 17.9108 
21 1 17.6537 -4.41447 13.6786 
22 1 19.4318 -7.76857 15.7833 
23 1 19.132 -6.43091 13.687 
24 9 17.7376 2.19797 16.4394 
25 5 18.2755 7.2875 16.0866 
26 3 17.8297 2.42882 17.444 
27 3 18.7018 2.1229 16.0679 
28 3 17.3114 1.25888 16.3965 
29 8 16.9012 3.22342 15.6873 
30 2 16.8737 2.91652 14.6331 
31 2 15.8735 3.19125 16.0575 
32 6 17.4992 5.44963 14.6722 
33 5 17.9326 6.78658 14.8109 
34 7 17.4083 4.63806 15.816 
35 6 17.7231 5.1537 17.0926 
36 5 18.1746 6.47398 17.2322 
37 1 17.2404 5.02662 13.6978 
38 1 17.9953 7.42205 13.9347 
39 1 17.5924 4.51582 17.9697 
40 1 18.5775 8.32279 16.1962 
41 1 18.4152 6.86279 18.2181 
42 10 13.9255 0.515803 19.5122 
43 4 17.328 0.0329452 19.3749 
44 4 13.987 -2.66561 19.2778 
45 4 13.8019 0.421173 -2.96401 
46 4 14.3174 3.55455 18.9882 
47 9 17.8155 -2.54305 -2.79254 
48 5 17.7165 -7.08201 -1.11864 
49 3 18.5937 -3.01795 -3.26281 
50 3 18.1403 -2.4119 -1.81499 
51 3 17.7496 -1.60439 -3.21439 
52 8 16.5329 -3.33993 -2.88384 
53 2 15.7168 -2.77955 -2.40775 
54 2 16.3167 -3.44943 21.5834 
55 6 16.9862 -4.772 -0.854195 
56 5 17.4851 -5.96247 -0.297675 
57 7 16.7779 -4.68271 -2.24461 
58 6 16.985 -5.81024 -3.05784 
59 5 17.4422 -7.0075 -2.49726 
60 1 16.8309 -3.88907 -0.231833 
61 1 17.7128 -5.99597 0.760887 
62 1 16.8723 -5.69982 21.4017 
63 1 18.1134 -7.99818 -0.691601 
64 1 17.6451 -7.86619 -3.13296 
65 9 17.9539 2.22975 -3.09562 
66 5 18.8862 7.02957 -2.16505 
67 3 18.6061 2.23986 -2.28539 
68 3 18.5448 2.35345 21.5995 
69 3 17.551 1.28185 -3.16405 
70 8 16.8884 3.30665 -2.948 
71 2 16.2303 3.30085 21.711 
72 2 16.2797 3.05185 -2.0748 
73 6 18.0224 5.41082 21.7438 
74 5 18.7058 6.60928 22.0329 
75 7 17.5196 4.65349 -2.73154 
76 6 17.7187 5.05391 -1.40378 
77 5 18.411 6.23735 -1.10264 
78 1 17.9192 5.05851 20.7146 
79 1 19.1449 7.17422 21.2161 
80 1 17.3724 4.40936 -0.59546 
81 1 19.4557 7.92903 -1.95484 
82 1 18.6343 6.49328 -0.0673736 
83 10 14.0109 0.144383 0.0530127 
84 4 17.1649 -0.0646439 0.159725 
85 4 13.5319 -2.72691 0.300223 
86 4 14.112 0.120108 3.33301 
87 4 13.6482 3.18032 0.0775368 
88 9 17.5365 -2.16022 3.51957 
89 5 16.3163 -7.11449 4.40324 
90 3 18.52 -2.41123 3.31255 
91 3 17.4641 -2.13256 4.55476 
92 3 17.3958 -1.18583 3.19309 
93 8 16.5173 -3.10857 2.87013 
94 2 15.5337 -2.69029 3.05269 
95 2 16.6795 -3.08737 1.78601 
96 6 15.1887 -5.05586 3.78481 
97 5 15.1444 -6.32838 4.35736 
98 7 16.4302 -4.52525 3.37228 
99 6 17.5936 -5.30326 3.39202 
100 5 17.5466 -6.61367 3.92413 
101 1 14.3005 -4.4224 3.75232 
102 1 14.2051 -6.6946 4.76348 
103 1 18.5489 -4.87815 3.08273 
104 1 16.2789 -8.09401 4.86681 
105 1 18.4561 -7.20539 3.97692 
106 9 17.4217 2.48431 4.10597 
107 5 17.2155 7.29879 3.51046 
108 3 17.413 3.19524 4.85792 
109 3 18.3296 2.02168 4.20528 
110 3 16.6813 1.81158 4.3706 
111 8 17.1483 3.07382 2.73752 
112 2 17.909 2.70979 2.04512 
113 2 16.1774 2.69922 2.40041 
114 6 18.3817 5.23454 3.00034 
115 5 18.4202 6.5916 3.3485 
116 7 17.1429 4.58765 2.83968 
117 6 15.9325 5.28736 3.00671 
118 5 15.9771 6.65928 3.3315 
119 1 19.3059 4.6553 2.93074 
120 1 19.3807 7.06838 3.5233 
121 1 14.9738 4.76901 2.946 
122 1 17.2463 8.3424 3.80488 
123 1 15.0491 7.19301 3.51326 
124 10 13.7244 0.0442297 6.6915 
125 4 17.1813 0.122708 6.67321 
126 4 13.5791 -2.97752 6.83076 
127 4 13.6342 0.0933125 9.71559 
128 4 14.3688 2.89234 6.35551 
129 9 17.8954 -2.41267 9.65455 
130 5 18.2508 -7.39428 10.8314 
131 3 18.7529 -2.47338 9.082 
132 3 18.2355 -2.41254 10.6337 
133 3 17.4951 -1.47717 9.46274 
134 8 16.9274 -3.57026 9.35017 
135 2 15.9576 -3.32153 9.81549 
136 2 16.7515 -3.60251 8.26384 
137 6 16.5116 -5.74411 10.5388 
138 5 16.9211 -6.98732 11.0246 
139 7 17.4282 -4.90817 9.88538 
140 6 18.787 -5.28569 9.79927 
141 5 19.2112 -6.52467 10.2888 
142 1 15.4843 -5.40512 10.6648 
143 1 16.2102 -7.63591 11.531 
144 1 19.5205 -4.61026 9.36654 
145 1 18.5549 -8.38255 11.1602 
146 1 20.2614 -6.80349 10.25 
147 9 16.6103 2.53859 9.83028 
148 5 17.4012 7.6709 9.95266 
149 3 15.6293 2.7888 9.60315 
150 3 16.6898 2.60733 10.8629 
151 3 16.6651 1.52936 9.60762 
152 8 17.6652 3.38736 9.10729 
153 2 18.6575 2.99267 9.35336 
154 2 17.4944 3.2395 8.03668 
155 6 18.6999 5.61047 9.8583 
156 5 18.6443 7.00708 10.0701 
157 7 17.5773 4.88007 9.4379 
158 6 16.3377 5.54042 9.34706 
159 5 16.2452 6.91492 9.61907 
160 1 19.6433 5.0892 10.0076 
161 1 19.5401 7.53731 10.3907 
162 1 15.4637 4.96947 9.02943 
163 1 17.3326 8.73881 10.1442 
164 1 15.2717 7.38709 9.53071 
165 10 20.3675 -0.191519 13.0025 
166 4 -1.72133 -0.0280839 13.3766 
167 4 20.6384 -3.04506 12.4529 
168 4 20.3697 -0.37524 16.1323 
169 4 20.2851 2.81699 13.2126 
170 9 -0.894961 -2.5031 16.5737 
171 5 -2.47218 -7.57063 16.8777 
172 3 -0.19008 -2.70518 15.8438 
173 3 -0.454899 -2.66646 17.4944 
174 3 -1.06121 -1.48661 16.5018 
175 8 -2.20986 -3.2684 16.3859 
176 2 -2.92338 -2.90605 17.1269 
177 2 -2.61058 -3.00758 15.3937 
178 6 -2.31365 -5.33539 17.8349 
179 5 -2.49376 -6.72643 17.9887 
180 7 -2.14315 -4.76964 16.556 
181 6 -2.15965 -5.59673 15.4316 
182 5 -2.37003 -6.98463 15.5961 
183 1 -2.35981 -4.67068 18.7007 
184 1 -2.68104 -7.12082 18.9846 
185 1 -2.10631 -5.158 14.4308 
186 1 -2.60757 -8.6441 16.9826 
187 1 -2.44503 -7.60709 14.7077 
188 9 -1.51444 2.06144 16.8857 
189 5 -1.29689 7.20277 16.851 
190 3 -1.87352 2.08109 17.8561 
191 3 -0.499195 2.25316 16.9302 
192 3 -1.64288 1.09134 16.5454 
193 8 -2.28292 3.04458 16.0214 
194 2 -2.04018 2.85306 14.9742 
195 2 21.8765 2.82692 16.1545 
196 6 -0.63065 4.87205 16.5372 
197 5 -0.310642 6.20235 16.8368 
198 7 -1.9661 4.49304 16.3466 
199 6 -2.96727 5.4777 16.4806 
200 5 -2.63998 6.83725 16.6646 
201 1 0.163743 4.13191 16.4589 
202 1 0.713701 6.44986 17.0806 
203 1 21.2143 5.18004 16.3596 
204 1 -1.03697 8.2381 17.0474 
205 1 21.7884 7.57712 16.6965 
206 10 20.3355 -0.531656 19.448 
207 4 -1.8803 -0.675189 19.3501 
208 4 19.7458 -3.50471 19.7189 
209 4 20.4751 -0.242263 -2.84181 
210 4 20.3109 2.64422 19.2436 
211 9 -1.98427 -2.56728 -2.11378 
212 5 -2.89698 -7.08465 -0.434124 
213 3 -1.25524 -2.57881 -1.37428 
214 3 -2.89413 -2.52057 -1.61894 
215 3 -1.87566 -1.6662 -2.61408 
216 8 -1.90506 -3.77552 -3.0432 
217 2 -2.60622 -3.60656 21.6646 
218 2 -0.891414 -3.7926 22.0642 
219 6 21.6404 -5.46165 -2.12907 
220 5 21.3329 -6.518 -1.25525 
221 7 -2.24472 -5.01708 -2.24226 
222 6 -1.26002 -5.56604 -1.40344 
223 5 -1.58507 -6.57331 -0.481734 
224 1 20.8651 -4.94612 -2.69618 
225 1 20.302 -6.81852 -1.13346 
226 1 -0.255471 -5.14282 -1.40517 
227 1 -3.14404 -7.85379 0.292331 
228 1 -0.829059 -6.93938 0.210783 
229 9 -1.44678 2.22624 -2.35038 
230 5 -1.23327 7.20175 22.0006 
231 3 -1.54791 2.6164 -1.39655 
232 3 -0.432236 2.23791 -2.53867 
233 3 -1.74956 1.23898 -2.27644 
234 8 -2.2258 3.02154 22.1511 
235 2 -2.0477 2.55441 21.175 
236 2 21.9309 2.90925 -3.16188 
237 6 -1.63823 5.10066 20.8584 
238 5 -1.26617 6.44923 20.8124 
239 7 -1.86916 4.48687 22.1082 
240 6 -1.84556 5.25723 -2.24377 
241 5 -1.58411 6.6279 -2.29733 
242 1 -1.71104 4.50644 19.9464 
243 1 -0.994678 6.89239 19.8601 
244 1 -2.04031 4.77488 -1.28674 
245 1 -0.951053 8.24903 21.9724 
246 1 -1.57616 7.21223 -1.3785 
247 10 20.3911 -0.0143158 0.514239 
248 4 -1.85859 -0.00497798 0.600519 
249 4 20.0974 -3.09435 0.45456 
250 4 20.3506 0.179063 3.48921 
251 4 20.5599 2.96235 0.0296155 
252 9 -1.38319 -2.12203 3.834 
253 5 -1.61123 -7.31304 4.47801 
254 3 -0.361161 -2.20462 3.68118 
255 3 -1.521 -2.12634 4.85776 
256 3 -1.63738 -1.17366 3.50059 
257 8 -2.17214 -3.24697 3.15238 
258 2 21.9934 -3.00086 3.29386 
259 2 -1.96929 -3.21514 2.07372 
260 6 -3.04248 -5.38771 4.10009 
261 5 -2.89118 -6.73457 4.45916 
262 7 -1.93923 -4.64547 3.68299 
263 6 -0.682793 -5.25897 3.60367 
264 5 -0.493362 -6.55657 4.08849 
265 1 21.1877 -4.94501 4.07889 
266 1 21.4507 -7.29337 4.75191 
267 1 0.166669 -4.68424 3.27608 
268 1 -1.49178 -8.34874 4.77718 
269 1 0.505032 -6.98279 4.08644 
270 9 -1.64717 2.7466 3.90628 
271 5 -0.707664 7.55458 4.05492 
272 3 -1.9714 2.88926 4.8818 
273 3 -0.61054 2.7461 3.9333 
274 3 -1.93015 1.78329 3.65057 
275 8 -2.19928 3.76024 2.90499 
276 2 -1.85925 3.44769 1.90636 