ITEM: TIMESTEP
110000
ITEM: NUMBER OF ATOMS
656
ITEM: BOX BOUNDS pp pp pp
-2.6309477690775882e+00 2.1830947769076548e+01
-4.3779677730546460e+01 4.3779677730546460e+01
-2.7253740298022446e+00 2.1925374029801858e+01
ITEM: ATOMS id type x y z 
1 10 13.7765 0.204765 12.9281 
2 4 16.7908 0.343845 13.1758 
3 4 13.4754 -2.93255 13.2401 
4 4 13.7044 0.326678 16.1389 
5 4 13.4742 3.23337 12.6729 
6 9 16.5317 -2.3412 16.6481 
7 5 16.4219 -7.36458 16.4733 
8 3 16.604 -2.78027 17.6101 
9 3 15.5306 -2.16453 16.4895 
10 3 16.8673 -1.44282 16.7842 
11 8 17.1094 -3.21293 15.492 
12 2 16.7025 -2.91502 14.5024 
13 2 18.2101 -3.03818 15.4224 
14 6 15.607 -5.12908 16.0547 
15 5 15.345 -6.47197 16.4375 
16 7 16.9068 -4.6754 15.7414 
17 6 17.9266 -5.58974 15.6286 
18 5 17.6901 -6.89357 16.0587 
19 1 14.809 -4.36048 16.1822 
20 1 14.3979 -6.83602 16.7058 
21 1 18.9139 -5.22959 15.4013 
22 1 16.3034 -8.39823 16.7988 
23 1 18.6054 -7.5379 16.0339 
24 9 17.3426 2.55172 16.407 
25 5 17.8569 7.42063 16.0513 
26 3 18.2812 2.88986 16.0292 
27 3 17.2326 1.52876 16.1055 
28 3 17.3898 2.51992 17.4319 
29 8 16.3506 3.46824 15.8137 
30 2 16.1291 3.17297 14.8033 
31 2 15.418 3.33318 16.3733 
32 6 16.9138 5.69544 14.7485 
33 5 17.5218 6.98469 14.7843 
34 7 16.697 4.89976 15.9176 
35 6 16.7842 5.51941 17.1903 
36 5 17.4212 6.77729 17.2278 
37 1 16.7911 5.12525 13.7988 
38 1 17.8032 7.43399 13.7951 
39 1 16.4797 4.98559 18.0867 
40 1 18.4248 8.37737 16.0818 
41 1 17.5596 7.17596 18.2436 
42 10 13.5952 0.424755 19.2207 
43 4 16.8681 0.185476 19.2477 
44 4 13.7134 -2.93082 19.0027 
45 4 13.8504 -0.0755994 -2.52628 
46 4 13.7599 3.62884 19.5781 
47 9 17.0037 -2.35798 -2.00392 
48 5 18.2766 -7.38468 -2.41838 
49 3 16.4221 -1.5308 -2.08127 
50 3 17.9755 -2.12008 -2.24895 
51 3 17.0164 -2.69053 -1.02767 
52 8 16.4013 -3.45939 21.7837 
53 2 15.402 -3.40312 -2.49165 
54 2 16.5287 -2.98018 20.7714 
55 6 17.363 -5.37544 -1.40948 
56 5 17.9894 -6.60152 -1.24611 
57 7 17.0104 -4.88224 -2.66348 
58 6 17.1141 -5.68562 20.878 
59 5 17.7069 -7.00658 21.0165 
60 1 17.1424 -4.73176 -0.547303 
61 1 18.3987 -6.67341 -0.280887 
62 1 16.7181 -5.29202 19.8911 
63 1 18.9208 -8.27989 -2.4391 
64 1 17.8702 -7.6206 20.1202 
65 9 16.3109 2.66838 21.7974 
66 5 17.5369 7.65811 21.7695 
67 3 15.3188 2.95575 21.907 
68 3 16.3495 1.68218 -2.64919 
69 3 16.452 2.78859 20.7764 
70 8 17.2978 3.47124 -1.97101 
71 2 16.9915 3.2716 -0.93892 
72 2 18.3304 3.05246 -2.14258 
73 6 18.6056 5.51966 -2.60731 
74 5 18.7166 6.87043 21.6283 
75 7 17.348 4.96654 -2.26726 
76 6 16.1901 5.73218 -2.25827 
77 5 16.2676 7.09863 -2.53481 
78 1 19.5363 4.9651 -2.68793 
79 1 19.7147 7.22547 21.2861 
80 1 15.2751 5.21947 -2.083 
81 1 17.5662 8.74719 21.745 
82 1 15.3775 7.63883 -2.523 
83 10 13.9848 0.0161523 0.515716 
84 4 16.9144 0.0468701 0.585214 
85 4 14.1745 -3.17606 0.805209 
86 4 14.0646 0.0707006 3.55327 
87 4 13.7958 3.01394 0.15672 
88 9 16.7846 -2.48671 3.40808 
89 5 16.8247 -7.41184 2.52474 
90 3 15.7783 -2.76381 3.2733 
91 3 17.1236 -2.35136 2.41158 
92 3 16.6952 -1.57119 3.76974 
93 8 17.6406 -3.48038 4.22518 
94 2 18.7199 -3.25787 4.09155 
95 2 17.3315 -3.29879 5.26654 
96 6 18.29 -5.83814 3.49065 
97 5 18.1356 -7.04015 2.79127 
98 7 17.2877 -4.94302 3.77933 
99 6 16.0119 -5.30232 3.46403 
100 5 15.7628 -6.59756 2.83792 
101 1 19.3529 -5.61035 3.75462 
102 1 18.8917 -7.80858 2.70639 
103 1 15.233 -4.53218 3.52697 
104 1 16.6261 -8.35799 2.055 
105 1 14.7581 -6.83217 2.50547 
106 9 17.152 2.43316 3.98938 
107 5 16.5808 7.61664 3.68836 
108 3 18.1439 2.61509 3.94593 
109 3 16.9529 1.38177 3.75244 
110 3 16.9024 2.5167 5.02196 
111 8 16.2688 3.32592 3.06358 
112 2 16.5562 3.12129 2.03857 
113 2 15.218 3.16856 3.21927 
114 6 16.3575 5.66199 2.26611 
115 5 16.4257 7.02582 2.3958 
116 7 16.3649 4.79738 3.3617 
117 6 16.4975 5.34358 4.66284 
118 5 16.7638 6.7239 4.83486 
119 1 16.2243 5.20344 1.3021 
120 1 16.397 7.61399 1.46445 
121 1 16.4853 4.67392 5.49393 
122 1 16.6699 8.6731 3.84286 
123 1 16.9438 7.08456 5.81267 
124 10 13.9226 -0.178105 6.51927 
125 4 16.9434 0.0517339 6.79746 
126 4 14.1038 -3.23226 6.34535 
127 4 13.8932 0.000870221 9.88888 
128 4 13.536 3.15241 6.35102 
129 9 17.2821 -2.5031 9.51086 
130 5 16.9295 -7.73471 9.70097 
131 3 17.1655 -2.55799 8.48608 
132 3 18.2388 -2.70323 9.80563 
133 3 17.0101 -1.56169 9.87195 
134 8 16.3662 -3.48988 10.2421 
135 2 16.3528 -3.2339 11.2729 
136 2 15.4156 -3.26904 9.86659 
137 6 17.1895 -5.4604 8.89638 
138 5 17.285 -6.87137 8.65967 
139 7 16.6543 -4.90852 10.0843 
140 6 16.2527 -5.84064 11.1578 
141 5 16.3138 -7.21715 10.8568 
142 1 17.3611 -4.84 8.02774 
143 1 17.7657 -7.1978 7.75578 
144 1 15.8347 -5.41452 12.0565 
145 1 17.02 -8.76336 9.60863 
146 1 15.9048 -7.97709 11.5335 
147 9 16.6547 2.41501 10.3203 
148 5 17.1721 7.52288 10.1849 
149 3 17.7136 2.41008 10.3285 
150 3 16.4569 1.46286 9.97011 
151 3 16.3555 2.5258 11.2904 
152 8 15.991 3.45809 9.36523 
153 2 16.2266 3.20158 8.35225 
154 2 14.9363 3.28045 9.54938 
155 6 15.4287 5.84226 9.75363 
156 5 15.8261 7.21051 9.98265 
157 7 16.4026 4.87537 9.58681 
158 6 17.7941 5.21357 9.5999 
159 5 18.1537 6.50763 10.0574 
160 1 14.3964 5.53395 9.56979 
161 1 15.0374 7.89856 10.3073 
162 1 18.4293 4.45658 9.48432 
163 1 17.4318 8.56845 10.3852 
164 1 19.2865 6.68473 10.0797 
165 10 19.8427 0.303699 12.8604 
166 4 -1.42718 0.0622877 12.7473 
167 4 20.136 -3.04128 12.4856 
168 4 19.9351 0.0165727 15.7885 
169 4 19.7766 3.39904 12.9182 
170 9 -1.64444 -2.5251 15.3083 
171 5 -1.08097 -7.53176 16.1929 
172 3 -1.75585 -2.73339 14.3207 
173 3 -0.630693 -2.46544 15.4285 
174 3 -1.946 -1.51403 15.3451 
175 8 -2.41559 -3.39235 16.3514 
176 2 -2.16608 -2.95611 17.3226 
177 2 20.9488 -3.31152 16.1735 
178 6 -1.25072 -5.39145 17.3531 
179 5 -0.918983 -6.75604 17.3486 
180 7 -1.8837 -4.81731 16.254 
181 6 -1.98141 -5.62859 15.0917 
182 5 -1.65038 -7.02303 15.0591 
183 1 -1.11572 -4.79644 18.2416 
184 1 -0.557773 -7.19585 18.2423 
185 1 -2.44024 -5.17878 14.2476 
186 1 -0.748702 -8.57377 16.2761 
187 1 -1.74782 -7.64621 14.1701 
188 9 -2.00691 2.87668 16.6945 
189 5 -1.39747 7.77957 15.7055 
190 3 21.465 3.16521 16.8164 
191 3 -1.47194 3.19325 17.5519 
192 3 -2.04321 1.84177 16.6691 
193 8 -1.30453 3.49547 15.5161 
194 2 -0.268371 3.21126 15.6752 
195 2 -1.71859 2.95987 14.6186 
196 6 -0.178433 5.70826 15.6091 
197 5 -0.185417 7.07423 15.7535 
198 7 -1.40527 4.95825 15.5453 
199 6 21.8215 5.71643 15.4917 
200 5 -2.60024 7.12338 15.5361 
201 1 0.753589 5.16046 15.7308 
202 1 0.728038 7.59165 15.7887 
203 1 20.9101 5.15217 15.3612 
204 1 -1.29696 8.88363 15.7089 
205 1 20.9383 7.78254 15.4564 
206 10 19.9571 0.0008241 19.306 
207 4 -1.70173 0.113245 19.0386 
208 4 19.5707 -3.07111 19.2548 
209 4 19.9877 0.0441857 -2.31506 
210 4 19.8052 2.87686 19.0979 
211 9 -1.46944 -2.28964 -1.46058 
212 5 -0.834767 -7.14825 -2.46191 
213 3 -0.374339 -2.43204 -1.40648 
214 3 -1.8938 -2.51264 -0.474244 
215 3 -1.65922 -1.29047 -1.68796 
216 8 -2.11764 -3.09087 -2.5699 
217 2 21.2981 -2.95043 -2.38592 
218 2 -1.97757 -2.55263 21.1255 
219 6 -2.57138 -5.48068 -2.37401 
220 5 -2.19974 -6.83734 -2.18156 
221 7 -1.67085 -4.49798 21.9114 
222 6 -0.349709 -4.86125 21.5945 
223 5 0.122446 -6.18248 21.775 
224 1 20.9613 -5.23321 -2.05766 
225 1 21.5539 -7.49174 -1.72053 
226 1 0.337862 -4.04126 21.3923 
227 1 -0.433044 -8.20489 -2.31753 
228 1 1.17984 -6.32044 21.4964 
229 9 -1.42551 2.75316 21.8644 
230 5 -1.53931 8.02181 -2.33598 
231 3 -0.4479 2.81723 -2.62154 
232 3 -1.5331 2.89804 20.8185 
233 3 -1.60895 1.75407 -2.60809 
234 8 -2.09677 3.68608 -1.81299 
235 2 21.3451 3.33095 -1.87993 
236 2 -1.71164 3.34975 -0.844238 
237 6 -1.77493 5.96338 -0.933815 
238 5 -1.59173 7.34077 -1.06502 
239 7 -1.84954 5.17151 -2.03116 
240 6 -1.7807 5.75543 21.3375 
241 5 -1.58855 7.13426 21.1967 
242 1 -1.7446 5.44852 -0.0091727 
243 1 -1.57905 7.90609 -0.123403 
244 1 -1.79211 5.04728 20.523 
245 1 -1.40441 9.04311 -2.40559 
246 1 -1.42803 7.50941 20.1877 
247 10 19.9357 0.223315 0.854675 
248 4 -1.49443 0.292333 0.778827 
249 4 19.6872 -3.12135 0.64454 
250 4 19.8852 -0.193696 3.91069 
251 4 19.8633 3.21053 1.18735 
252 9 -0.934525 -2.44994 4.32909 
253 5 -0.386352 -7.19541 3.71619 
254 3 0.0680856 -2.63809 4.07806 
255 3 -0.997889 -2.60017 5.36658 
256 3 -0.964947 -1.44687 4.13422 
257 8 -2.02292 -3.24659 3.57826 
258 2 21.4044 -2.92394 3.97656 
259 2 -2.1016 -2.87743 2.60613 
260 6 -1.12861 -5.23183 4.80713 
261 5 -0.475455 -6.44123 4.85324 
262 7 -1.70232 -4.71124 3.63726 
263 6 -1.58747 -5.48779 2.48463 
264 5 -0.850202 -6.6563 2.51536 
265 1 -1.12862 -4.66236 5.69652 
266 1 -0.0476556 -6.81339 5.75166 
267 1 -2.00287 -5.08257 1.56048 
268 1 0.197801 -8.14122 3.73125 
269 1 -0.571097 -7.06227 1.53773 
270 9 -1.79324 2.89914 4.0445 
271 5 -2.28662 7.89369 5.38458 
272 3 -1.68025 2.87202 5.05685 
273 3 -1.41016 1.9709 3.61044 
274 3 21.5901 2.91038 3.80604 
275 8 -1.05783 4.11914 3.54219 
276 2 -0.00441923 4.04237 3.84613 
277 2 -1.19868 4.03881 2.41321 
278 6 21.5712 5.87608 4.09057 
279 5 21.2283 7.14534 4.69815 
280 7 -1.52806 5.45652 4.08764 
281 6 -0.634884 6.21236 4.93308 
282 5 -1.01883 7.36271 5.56251 
283 1 20.7244 5.34855 3.62813 
284 1 20.2029 7.47052 4.70922 
285 1 0.343824 5.88378 5.17679 
286 1 21.8033 8.79022 5.82566 
287 1 -0.247568 7.86201 6.14975 
288 10 19.869 0.280861 6.88487 
289 4 -1.48013 0.353766 6.87852 
290 4 20.315 -3.10315 7.14668 
291 4 19.789 0.309905 9.91897 
292 4 19.7163 3.24734 6.50257 
293 9 -1.74156 -2.68508 10.2068 
294 5 -1.07826 -7.74144 9.86107 
295 3 -1.65002 -1.68223 10.1108 
296 3 -1.61186 -2.90233 11.2116 
297 3 21.7258 -2.98396 10.0079 
298 8 -0.759046 -3.41753 9.45205 
299 2 -1.02325 -3.17897 8.40221 
300 2 0.225409 -3.10316 9.78894 
301 6 0.298101 -5.69015 9.67989 
302 5 0.1991 -7.09219 9.77259 
303 7 -0.866613 -4.94003 9.59948 
304 6 -2.11892 -5.56208 9.75466 
305 5 -2.21433 -6.96175 9.95835 
306 1 1.33721 -5.19149 9.70157 
307 1 1.09557 -7.70365 9.7571 
308 1 21.3712 -5.01843 9.78751 
309 1 -1.13669 -8.8458 9.79317 
310 1 21.3123 -7.41529 10.2478 
311 9 -0.81704 2.62416 10.047 
312 5 -0.972639 7.64977 10.7297 
313 3 -0.999555 1.66345 9.86266 
314 3 -0.650454 2.68356 11.0672 
315 3 0.0685403 2.73879 9.60881 
316 8 -1.88133 3.60159 9.55542 
317 2 -1.99499 3.44231 8.41339 
318 2 21.6418 3.25732 10.0716 
319 6 -1.25705 5.96304 8.95395 
320 5 -0.998382 7.33068 9.34444 
321 7 -1.52196 5.00967 9.91767 
322 6 -1.50025 5.35187 11.2783 
323 5 -1.30426 6.68722 11.7083 
324 1 -1.24875 5.67037 7.88735 
325 1 -0.817678 8.11624 8.61811 
326 1 -1.54305 4.58342 12.0657 
327 1 -0.916739 8.68023 10.9649 
328 1 -1.34521 6.82307 12.7971 
329 10 1.6202 -0.160146 12.9838 
330 4 4.62507 -0.0735706 12.8524 
331 4 1.01306 -3.16416 12.9622 
332 4 1.63065 0.334605 15.9387 
333 4 1.8254 3.21771 12.7838 
334 9 4.97575 -2.34483 16.3595 
335 5 4.68449 -7.46194 16.2136 
336 3 4.83638 -1.35139 16.1886 
337 3 5.96933 -2.54191 16.3973 
338 3 4.7027 -2.47366 17.3424 
339 8 4.2314 -3.25 15.4237 
340 2 3.13229 -3.09572 15.3939 
341 2 4.57675 -3.0174 14.4316 
342 6 3.23879 -5.44002 15.8268 
343 5 3.42255 -6.82375 16.0414 
344 7 4.39892 -4.65647 15.7405 
345 6 5.68341 -5.29613 15.9054 
346 5 5.79653 -6.66143 16.1057 
347 1 2.1873 -4.93526 15.8809 
348 1 2.56465 -7.5073 16.1164 
349 1 6.63476 -4.74778 15.9027 
350 1 4.70435 -8.56872 16.4804 
351 1 6.83602 -7.09884 16.2088 
352 9 4.7768 2.68751 15.3915 
353 5 5.75624 7.64088 15.5363 
354 3 5.82742 2.86968 15.5241 
355 3 4.59097 2.78727 14.3845 
356 3 4.63721 1.78519 15.7949 
357 8 4.01677 3.73224 16.2227 
358 2 2.95123 3.60014 16.1271 
359 2 4.22873 3.61019 17.2759 
360 6 4.80076 5.60021 14.6963 
361 5 5.45589 6.80383 14.507 
362 7 4.51183 5.17182 15.9911 
363 6 4.97906 5.95969 17.1061 
364 5 5.44466 7.24119 16.8679 
365 1 4.71479 4.90482 13.8469 
366 1 5.74766 7.07362 13.4757 
367 1 4.93743 5.5748 18.0974 
368 1 6.26417 8.61097 15.4103 
369 1 5.73291 7.93353 17.6582 
370 10 1.48707 0.0267005 18.9516 
371 4 4.5708 0.392949 19.1313 
372 4 1.83101 -2.94768 18.7148 
373 4 1.50073 -0.0526811 -2.47466 
374 4 1.08298 3.42311 19.0974 
375 9 4.50779 -2.46372 21.5066 
376 5 4.91744 -7.2959 -1.74465 
377 3 4.27877 -1.43208 21.4696 
378 3 4.43735 -2.71975 20.4845 
379 3 5.54084 -2.5912 21.671 
380 8 3.6121 -3.17657 -2.16494 
381 2 3.63599 -2.64189 -1.17535 
382 2 2.61739 -3.13265 -2.51097 
383 6 4.33467 -5.42019 21.5181 
384 5 4.83582 -6.72675 21.593 
385 7 4.00189 -4.64444 -1.9879 
386 6 4.25608 -5.16928 -0.715336 
387 5 4.66509 -6.52249 -0.577902 
388 1 4.06096 -5.00839 20.5376 
389 1 5.02021 -7.27381 20.7222 
390 1 3.99759 -4.52743 0.109566 
391 1 5.2594 -8.29711 -1.62061 
392 1 4.73496 -6.94598 0.394395 
393 9 4.4836 2.46776 -2.15808 
394 5 4.88475 7.55115 -1.88571 
395 3 4.66456 1.5363 -2.54853 
396 3 3.47076 2.54989 -1.86208 
397 3 5.02705 2.46848 -1.3697 
398 8 4.88945 3.52053 21.4323 
399 2 5.97181 3.3875 21.2472 
400 2 4.25608 3.33469 20.5478 
401 6 5.99975 5.47138 -2.26941 
402 5 6.10802 6.85546 -2.06599 
403 7 4.75575 4.92958 21.8811 
404 6 3.59003 5.62992 -2.53095 
405 5 3.58764 6.96366 -2.03497 
406 1 6.88955 4.87424 -2.45681 
407 1 7.03465 7.28818 -1.64568 
408 1 2.67465 5.02311 -2.6202 
409 1 4.96735 8.61803 -1.57418 
410 1 2.6061 7.43095 -1.65904 
411 10 1.55466 0.369811 0.683085 
412 4 4.59524 0.183155 0.584932 
413 4 1.21827 -2.85914 1.10333 
414 4 1.7826 0.430523 3.87847 
415 4 1.56933 3.50067 0.498648 
416 9 4.21327 -2.47886 3.82698 
417 5 5.32839 -7.5463 3.45942 
418 3 4.45439 -1.46604 3.63409 
419 3 4.54523 -2.59839 4.80555 
420 3 3.18161 -2.51398 3.72601 
421 8 5.03996 -3.35416 2.82386 
422 2 4.50584 -3.28435 1.89085 
423 2 5.99179 -2.88191 2.73515 
424 6 3.95131 -5.50841 3.42697 
425 5 4.10445 -6.93239 3.66637 
426 7 5.11249 -4.82781 2.9894 
427 6 6.30791 -5.46446 2.85281 
428 5 6.41313 -6.81427 3.0552 
429 1 3.00413 -5.05411 3.65491 
430 1 3.24225 -7.52111 4.0317 
431 1 7.12252 -4.82597 2.53829 
432 1 5.39234 -8.58873 3.6903 
433 1 7.30297 -7.33907 2.82196 
434 9 5.25471 2.42054 3.75249 
435 5 5.68738 7.24731 5.31686 
436 3 4.84077 1.52641 3.38604 
437 3 5.39904 2.43449 4.77543 
438 3 6.11095 2.5704 3.32494 
439 8 4.30704 3.5947 3.52482 
440 2 4.2928 3.73583 2.43064 
441 2 3.28759 3.28009 3.89665 
442 6 4.74259 6.07454 3.38847 
443 5 5.33566 7.22133 3.93974 
444 7 4.70618 4.93055 4.15532 
445 6 4.98996 4.99752 5.58571 
446 5 5.5292 6.13599 6.14522 
447 1 4.61339 5.96132 2.32844 
448 1 5.5831 8.09366 3.28491 
449 1 4.87373 4.1275 6.1983 
450 1 6.10124 8.09695 5.73406 
451 1 5.90547 6.07804 7.18059 
452 10 1.65633 0.170718 6.91913 
453 4 4.8571 0.176515 6.76755 
454 4 1.84714 -2.91814 6.68828 
455 4 1.80507 0.125357 9.92297 
456 4 1.69478 3.3072 7.10705 
457 9 4.98916 -2.4664 9.45567 
458 5 4.12498 -7.61985 9.79262 
459 3 5.97472 -2.90507 9.34913 
460 3 5.12541 -1.47118 9.72059 
461 3 4.58424 -2.53886 8.49579 
462 8 4.10865 -3.32413 10.3715 
463 2 4.35267 -3.06494 11.4829 
464 2 3.06467 -2.94539 10.2785 
465 6 3.9997 -5.61456 11.2424 
466 5 4.06618 -6.97983 11.0992 
467 7 4.09639 -4.81958 10.1398 
468 6 4.31458 -5.39581 8.8795 
469 5 4.18168 -6.79635 8.68433 
470 1 4.08812 -5.19456 12.2039 
471 1 4.01863 -7.58505 11.9841 
472 1 4.44671 -4.73907 8.01754 
473 1 4.19521 -8.70421 9.75456 
474 1 4.18954 -7.16902 7.67222 
475 9 4.38122 2.76302 10.1899 
476 5 5.27181 7.96877 10.3721 
477 3 3.36164 2.97908 10.2227 
478 3 4.61172 2.81829 11.1926 
479 3 4.47511 1.80859 9.83403 
480 8 5.27854 3.69652 9.40576 
481 2 6.29871 3.30232 9.45065 
482 2 4.88073 3.69197 8.35072 
483 6 6.46085 5.80559 10.0916 
484 5 6.48565 7.20652 10.3533 
485 7 5.2288 5.18044 9.79088 
486 6 4.00196 5.84471 9.86714 
487 5 4.06838 7.18308 10.1935 
488 1 7.33416 5.20577 10.2485 
489 1 7.34287 7.67651 10.7879 
490 1 3.10179 5.2569 9.66489 
491 1 5.29004 8.98859 10.7909 
492 1 3.13843 7.70473 10.173 
493 10 7.60872 0.0145004 12.976 
494 4 10.6941 0.158904 13.0023 
495 4 7.78727 -3.07147 13.0105 
496 4 7.72998 0.0141775 16.0722 
497 4 7.3332 3.07436 12.8683 
498 9 11.1225 -2.15903 15.8603 
499 5 11.3124 -7.34033 16.6009 
500 3 12.1769 -2.28878 15.8865 
501 3 11.083 -1.19633 16.258 
502 3 10.9146 -2.06349 14.8763 
503 8 10.2927 -3.1358 16.7703 
504 2 10.4071 -2.85193 17.8051 
505 2 9.24713 -3.05938 16.4777 
506 6 10.7637 -5.32552 17.9191 
507 5 10.9923 -6.7644 17.8717 
508 7 10.7024 -4.58935 16.7585 
509 6 11.0446 -5.16621 15.521 
510 5 11.3919 -6.54556 15.5109 
511 1 10.6466 -4.66604 18.797 
512 1 10.9203 -7.33498 18.8014 
513 1 10.9982 -4.66711 14.6318 
514 1 11.6326 -8.36657 16.5009 
515 1 11.7737 -6.94049 14.565 
516 9 10.5855 2.47208 15.5891 
517 5 10.6445 7.65829 15.4391 
518 3 10.8151 1.52299 15.7928 
519 3 10.8264 2.69344 14.5789 
520 3 9.53892 2.56751 15.7613 
521 8 11.2673 3.44739 16.5041 
522 2 10.9614 3.32994 17.5595 
523 2 12.3762 3.29715 16.5708 
524 6 9.84215 5.35663 15.5998 
525 5 9.64124 6.69211 15.2612 
526 7 11.0405 4.91379 16.1382 
527 6 12.0898 5.90966 16.2453 
528 5 11.8844 7.21203 16.0003 
529 1 9.01379 4.6093 15.3107 
530 1 8.65037 6.93988 14.8077 
531 1 13.0691 5.56369 16.6432 
532 1 10.5696 8.59421 14.9806 
533 1 12.6248 8.0244 16.1391 
534 10 7.68574 0.370955 19.1542 
535 4 10.6299 0.313051 19.5013 
536 4 7.34951 -3.01657 19.3287 
537 4 7.66233 0.421748 -2.60246 
538 4 7.68563 3.26353 18.5134 
539 9 9.99909 -2.43816 21.723 
540 5 11.5841 -7.41168 21.5872 
541 3 10.1314 -2.41654 20.6602 
542 3 10.0746 -1.41282 -2.57982 
543 3 9.05836 -2.84217 -2.68598 
544 8 11.216 -3.16657 -2.29717 
545 2 12.1423 -2.67538 -2.7091 
546 2 11.1789 -2.9723 -1.2467 
547 6 10.2346 -5.42024 21.8047 
548 5 10.3225 -6.7923 21.5453 
549 7 11.3357 -4.63465 -2.45379 
550 6 12.5812 -5.27254 -2.43676 
551 5 12.7307 -6.66066 -2.71036 
552 1 9.24763 -4.87698 21.7681 
553 1 9.47487 -7.35558 21.2937 
554 1 13.4145 -4.6468 -2.21064 
555 1 11.6443 -8.46439 21.4217 
556 1 13.7103 -7.15105 -2.58851 
557 9 11.1411 2.70279 -2.16988 
558 5 10.7326 7.90321 -1.94608 
559 3 12.0615 3.04446 -2.44053 
560 3 11.0185 1.64594 -2.4309 
561 3 11.0626 2.58272 -1.20737 
562 8 10.1243 3.63868 21.8633 
563 2 10.2876 3.56732 20.7283 
564 2 9.12623 3.36572 -2.51784 
565 6 10.0532 6.13172 21.2025 
566 5 10.2408 7.50341 21.4988 
567 7 10.3416 5.16443 -2.47876 
568 6 10.6528 5.63597 -1.21932 
569 5 10.957 6.97207 -0.947066 
570 1 9.61579 5.85971 20.2084 
571 1 9.95899 8.35201 20.8075 
572 1 10.8431 5.02484 -0.369472 
573 1 10.8489 8.92379 -1.75926 
574 1 11.2288 7.27888 0.0149111 
575 10 7.83878 0.111605 0.346767 
576 4 10.8023 0.015785 0.581307 
577 4 7.48437 -2.86751 -0.174357 
578 4 7.73075 -0.197384 3.5264 
579 4 7.55026 3.02098 0.856602 
580 9 11.5387 -2.49099 3.44154 
581 5 10.031 -7.56601 3.74541 
582 3 11.534 -2.57984 4.44335 
583 3 11.2989 -1.54197 3.21125 
584 3 12.5497 -2.62453 3.21552 
585 8 10.4455 -3.35272 2.80675 
586 2 9.4115 -3.0351 3.09504 
587 2 10.3973 -3.23161 1.70669 
588 6 10.6385 -5.29256 4.47378 
589 5 10.3847 -6.64499 4.72959 
590 7 10.4457 -4.8783 3.14451 
591 6 10.3163 -5.7545 2.09483 
592 5 10.0647 -7.13673 2.39312 
593 1 10.8591 -4.5178 5.1993 
594 1 10.4493 -6.87453 5.81939 
595 1 10.312 -5.32456 1.09303 
596 1 9.77275 -8.58944 4.02044 
597 1 9.90708 -7.83024 1.56565 
598 9 10.4848 2.27339 3.99363 
599 5 10.8274 7.39966 4.07418 
600 3 10.7265 2.60493 4.94594 
601 3 10.7574 1.28601 3.91985 
602 3 9.4797 2.40038 3.93106 
603 8 11.2345 3.14655 3.0847 
604 2 12.2619 2.79945 3.19858 
605 2 10.9517 2.83666 2.0637 
606 6 12.1565 5.42331 3.34124 
607 5 12.0622 6.75486 3.79402 
608 7 11.0301 4.64962 3.37177 
609 6 9.75989 5.20511 3.57184 
610 5 9.64986 6.57495 3.87372 
611 1 13.132 4.93294 3.15357 
612 1 12.9886 7.36188 3.81633 
613 1 8.89273 4.55574 3.58906 
614 1 10.7443 8.43626 4.13374 
615 1 8.65487 6.93724 3.9599 
616 10 7.76597 -0.27088 6.63904 
617 4 10.8236 -0.310977 6.39454 
618 4 7.37537 -3.40118 6.50795 
619 4 8.02632 -0.143203 9.76195 
620 4 8.09069 2.99198 6.57961 
621 9 10.8565 -2.31032 10.4396 
622 5 10.4303 -7.46079 9.66529 
623 3 10.2203 -2.72303 11.1443 
624 3 10.5564 -1.33944 10.2011 
625 3 11.8082 -2.29828 10.7705 
626 8 10.6573 -3.2418 9.22413 
627 2 9.72479 -2.96515 8.70934 
628 2 11.3799 -2.97517 8.46954 
629 6 9.45463 -5.25758 9.70105 
630 5 9.35115 -6.6754 9.88297 
631 7 10.692 -4.71732 9.39404 
632 6 11.853 -5.49856 9.34266 
633 5 11.6801 -6.87741 9.42236 
634 1 8.62059 -4.59234 9.73304 
635 1 8.36987 -7.0559 10.1477 
636 1 12.8551 -5.07615 9.32349 
637 1 10.3094 -8.58714 9.77428 
638 1 12.4879 -7.53315 9.15185 
639 9 10.9717 2.42987 9.08906 
640 5 11.8441 7.33426 10.0492 
641 3 10.4627 1.50316 8.97977 
642 3 11.9784 2.32669 9.40636 
643 3 11.0784 2.67102 8.08444 
644 8 10.1475 3.34291 10.0359 
645 2 9.04983 3.44179 9.62701 
646 2 10.1315 2.87275 10.9969 
647 6 11.189 5.35011 8.84731 
648 5 11.8415 6.57928 8.88069 
649 7 10.7943 4.75964 10.027 
650 6 10.798 5.44993 11.2183 
651 5 11.3486 6.7434 11.2285 
652 1 11.063 4.93644 7.78892 
653 1 12.294 6.93395 8.0772 
654 1 10.5179 4.94541 12.1148 
655 1 12.2416 8.32946 10.1273 
656 1 11.2231 7.32659 12.1053 
ITEM: TIMESTEP
111000
ITEM: NUMBER OF ATOMS
656
ITEM: BOX BOUNDS pp pp pp
-2.6309477690775882e+00 2.1830947769076548e+01
-4.3779677730546460e+01 4.3779677730546460e+01
-2.7253740298022446e+00 2.1925374029801858e+01
ITEM: ATOMS id type x y z 
1 10 13.9184 -0.125016 12.7987 
2 4 16.7945 -0.23306 13.154 
3 4 13.6404 -3.32141 12.9347 
4 4 13.6589 -0.0950697 15.9272 
5 4 13.5815 2.95969 12.4756 
6 9 16.334 -2.53835 16.4821 
7 5 17.092 -7.49829 16.499 
8 3 16.8086 -2.53262 17.3851 
9 3 15.3439 -2.82055 16.6453 
10 3 16.256 -1.56976 16.1667 
11 8 17.0092 -3.37242 15.4887 
12 2 16.5741 -3.2089 14.5642 
13 2 17.9653 -2.92772 15.4234 
14 6 15.813 -5.45772 16.1102 
15 5 15.848 -6.82283 16.5029 
16 7 17.0425 -4.82846 15.7617 
17 6 18.2502 -5.54319 15.7293 
18 5 18.2758 -6.87898 16.1826 
19 1 14.8381 -4.88534 16.138 
20 1 14.8724 -7.35387 16.6533 
21 1 19.179 -4.9517 15.6318 
22 1 17.1211 -8.57639 16.7028 
23 1 19.2006 -7.45928 16.1743 
24 9 17.1831 2.39778 16.146 
25 5 16.1744 7.48784 15.5406 
26 3 18.049 2.86294 16.0332 
27 3 17.1706 1.3526 15.9584 
28 3 16.9438 2.59575 17.1294 
29 8 16.1865 3.19 15.3729 
30 2 16.1878 2.88915 14.3492 
31 2 15.1697 2.92356 15.7242 
32 6 16.1724 5.39776 14.3878 
33 5 16.2635 6.77804 14.3848 
34 7 16.2657 4.69651 15.5381 
35 6 16.2061 5.38796 16.7673 
36 5 16.1155 6.80173 16.7393 
37 1 16.1624 4.8346 13.5145 
38 1 16.2711 7.23261 13.4049 
39 1 16.3039 4.81758 17.6898 
40 1 16.2655 8.52767 15.5447 
41 1 16.0867 7.29592 17.6853 
42 10 13.668 -0.0938074 18.8453 
43 4 16.8026 -0.14662 19.0825 
44 4 13.2923 -3.22766 18.823 
45 4 13.9348 0.0634764 -2.41279 
46 4 14.1091 2.94082 19.0392 
47 9 16.9263 -2.51815 -1.75783 
48 5 18.1413 -7.28665 -2.27456 
49 3 16.7935 -1.56834 -2.09399 
50 3 17.9769 -2.60037 -1.73461 
51 3 16.6559 -2.64936 -0.771407 
52 8 16.2486 -3.51549 21.9453 
53 2 15.1161 -3.48671 -2.65761 
54 2 16.4758 -3.01657 20.9995 
55 6 16.8831 -5.47382 -1.29531 
56 5 17.6146 -6.64687 -1.16702 
57 7 16.652 -4.94933 -2.56553 
58 6 17.1853 -5.61115 20.949 
59 5 17.9056 -6.80778 21.0785 
60 1 16.7324 -4.95075 -0.385592 
61 1 18.0228 -6.82663 -0.186189 
62 1 17.0404 -5.27577 19.9088 
63 1 18.6836 -8.17326 -2.13158 
64 1 18.2727 -7.34626 20.2663 
65 9 16.5867 2.52821 21.902 
66 5 16.5961 7.47595 21.1571 
67 3 15.5763 2.82735 22.019 
68 3 16.7131 1.54023 -2.40766 
69 3 16.6929 2.58168 20.834 
70 8 17.4546 3.51853 -2.01089 
71 2 17.3317 3.4884 -0.924975 
72 2 18.5552 3.17228 -2.12683 
73 6 18.2353 5.76302 21.809 
74 5 17.9202 7.02002 21.3124 
75 7 17.1575 4.94553 -2.49697 
76 6 15.868 5.38612 21.9567 
77 5 15.5783 6.64072 21.4176 
78 1 19.2756 5.32615 -2.86496 
79 1 18.7197 7.75703 21.0257 
80 1 15.1342 4.60698 -2.60763 
81 1 16.3431 8.4259 20.7111 
82 1 14.5343 6.93231 21.1386 
83 10 13.9325 0.473757 0.568111 
84 4 16.9049 0.413945 0.878622 
85 4 13.8522 -2.98701 0.785411 
86 4 13.4915 0.149074 3.55776 
87 4 13.7478 3.36264 0.241547 
88 9 16.6982 -2.25594 3.25967 
89 5 16.4735 -7.37236 3.48408 
90 3 15.6727 -2.32234 3.34342 
91 3 16.9109 -2.65478 2.31294 
92 3 16.9579 -1.26454 3.25587 
93 8 17.4704 -3.22539 4.16319 
94 2 18.5793 -3.13278 4.06133 
95 2 17.2071 -2.98562 5.19853 
96 6 18.1085 -5.6221 3.99062 
97 5 17.7836 -7.0308 3.74927 
98 7 17.0876 -4.6732 3.9838 
99 6 15.7819 -5.05833 3.63237 
100 5 15.4388 -6.41089 3.53264 
101 1 19.1323 -5.28548 3.97108 
102 1 18.577 -7.77357 3.6475 
103 1 15.0317 -4.32786 3.81067 
104 1 16.2386 -8.36756 3.12678 
105 1 14.4326 -6.78641 3.41131 
106 9 17.4556 2.68599 3.94286 
107 5 15.8386 7.5632 4.59245 
108 3 18.2759 3.23785 3.5909 
109 3 17.4936 1.74512 3.56316 
110 3 17.4222 2.58035 4.96114 
111 8 16.2611 3.44735 3.39087 
112 2 16.3771 3.32924 2.32864 
113 2 15.3378 2.90415 3.59653 
114 6 15.7773 5.86686 2.92524 
115 5 15.6263 7.19863 3.2495 
116 7 16.0786 4.87955 3.91227 
117 6 16.3557 5.29197 5.26062 
118 5 16.3 6.6651 5.55621 
119 1 15.6242 5.5433 1.88226 
120 1 15.4624 7.94899 2.50038 
121 1 16.6724 4.59662 5.99735 
122 1 15.8227 8.65324 4.81072 
123 1 16.5561 6.9896 6.55693 
124 10 13.7297 0.00587044 6.65898 
125 4 16.8773 0.154118 6.72992 
126 4 13.8557 -3.05334 6.69109 
127 4 14.0762 -0.153477 9.76085 
128 4 13.5274 2.94592 6.71339 
129 9 17.289 -2.46139 9.43813 
130 5 18.2088 -7.54323 10.3265 
131 3 17.086 -2.48406 8.44929 
132 3 18.294 -2.63863 9.54355 
133 3 17.1435 -1.58579 9.82798 
134 8 16.4782 -3.49049 10.2399 
135 2 16.582 -3.13235 11.3007 
136 2 15.4666 -3.50675 9.90258 
137 6 17.5072 -5.56898 9.07512 
138 5 18.1328 -6.81383 9.14285 
139 7 17.0769 -4.87997 10.2557 
140 6 17.0721 -5.6172 11.48 
141 5 17.6946 -6.86404 11.4857 
142 1 17.4547 -4.99667 8.14725 
143 1 18.5866 -7.27377 8.24909 
144 1 16.5654 -5.28694 12.3572 
145 1 18.759 -8.54008 10.3865 
146 1 17.7263 -7.4658 12.4333 
147 9 16.8996 2.51459 10.4215 
148 5 17.425 7.52976 10.3976 
149 3 17.9594 2.58444 10.4701 
150 3 16.6762 1.53297 10.1881 
151 3 16.5164 2.53117 11.3957 
152 8 16.3012 3.54605 9.48099 
153 2 16.4669 3.13351 8.45049 
154 2 15.2199 3.4002 9.50862 
155 6 15.6853 5.99277 9.81517 
156 5 16.0478 7.26917 10.2473 
157 7 16.6824 5.00137 9.74464 
158 6 18.0345 5.32063 9.89643 
159 5 18.4313 6.59858 10.2468 
160 1 14.6122 5.78743 9.76033 
161 1 15.3438 8.03507 10.5143 
162 1 18.6829 4.51686 9.96251 
163 1 17.6923 8.48113 10.7911 
164 1 19.3866 6.78063 10.6392 
165 10 19.9662 0.156336 13.1416 
166 4 -1.50879 0.333279 12.7685 
167 4 20.1664 -2.93773 13.0187 
168 4 20.1126 -0.0600456 16.1081 
169 4 19.3426 3.21813 13.1675 
170 9 -1.19634 -2.35679 15.5854 
171 5 -0.594021 -7.25669 16.5112 
172 3 -1.40796 -2.57629 14.6687 
173 3 -0.17356 -2.51364 15.6743 
174 3 -1.33077 -1.32974 15.5996 
175 8 -1.93256 -3.18777 16.5944 
176 2 -1.65663 -2.68702 17.5372 
177 2 21.4867 -3.07854 16.3602 
178 6 -1.06004 -5.23843 17.699 
179 5 -0.538522 -6.52064 17.6997 
180 7 -1.57078 -4.61507 16.558 
181 6 -1.39133 -5.31896 15.2623 
182 5 -1.0186 -6.67011 15.2829 
183 1 -1.15801 -4.67221 18.6543 
184 1 -0.176229 -7.02327 18.5996 
185 1 -1.64138 -4.78159 14.3594 
186 1 -0.243766 -8.29397 16.4495 
187 1 -0.947357 -7.17389 14.3256 
188 9 -1.89293 2.58051 16.5573 
189 5 -1.7154 7.64029 15.8985 
190 3 -1.2152 2.522 17.3543 
191 3 -2.10218 1.57669 16.3681 
192 3 -2.84243 2.94556 16.8613 
193 8 -1.37266 3.35684 15.3934 
194 2 -0.329163 3.08417 15.1664 
195 2 -2.01991 3.0812 14.534 
196 6 -0.312425 5.67119 15.5143 
197 5 -0.430381 7.05705 15.7489 
198 7 -1.43955 4.83533 15.6575 
199 6 21.7804 5.45415 15.7912 
200 5 21.6051 6.78766 15.9654 
201 1 0.614818 5.15087 15.2655 
202 1 0.382966 7.75801 15.7766 
203 1 20.9809 4.7974 15.8776 
204 1 -1.82345 8.72198 15.8238 
205 1 20.6155 7.15272 16.1169 
206 10 19.786 -0.181037 19.182 
207 4 -1.54615 0.111553 19.5569 
208 4 19.517 -3.22613 19.2234 
209 4 19.5688 -0.018462 -2.48046 
210 4 19.5774 3.14298 18.9075 
211 9 -0.781066 -2.17777 -2.07471 
212 5 -1.20247 -7.2447 -1.47951 
213 3 -1.10495 -1.21693 -2.30795 
214 3 0.133502 -2.34733 -2.4524 
215 3 -0.736799 -2.22674 -1.03378 
216 8 -1.88189 -3.204 -2.55519 
217 2 21.64 -2.75052 -2.20624 
218 2 -1.88745 -3.08922 20.9666 
219 6 21.7025 -5.4347 -1.83297 
220 5 -2.51772 -6.78072 -1.53019 
221 7 -1.69435 -4.60494 -2.1784 
222 6 -0.357495 -5.04307 -2.04222 
223 5 -0.170698 -6.33893 -1.63704 
224 1 20.6131 -5.09774 -1.79138 
225 1 21.0662 -7.36301 -1.19673 
226 1 0.491525 -4.33769 -2.11082 
227 1 -1.07218 -8.24917 -1.26167 
228 1 0.860619 -6.63426 -1.34567 
229 9 -0.880335 2.75397 -2.52692 
230 5 -2.28342 7.63734 21.7637 
231 3 -0.162424 3.23267 -1.97599 
232 3 -0.645068 2.7764 21.1214 
233 3 -0.921725 1.83781 -2.12781 
234 8 -2.25034 3.37717 -2.27769 
235 2 21.5357 2.8672 21.6958 
236 2 -2.60434 3.05005 -1.27563 
237 6 -2.5447 5.81118 -1.38733 
238 5 -2.66438 7.19872 -1.62652 
239 7 -2.32128 4.90677 -2.46388 
240 6 -1.98209 5.38269 20.9097 
241 5 -1.89934 6.76002 20.707 
242 1 21.651 5.3923 -0.412192 
243 1 21.4547 7.88351 -0.866233 
244 1 -1.79231 4.61358 20.1757 
245 1 -2.37113 8.73657 21.5212 
246 1 -1.49516 7.227 19.8043 
247 10 19.8943 0.0392338 0.706667 
248 4 -1.36189 0.329495 0.387786 
249 4 19.4588 -3.02653 0.709765 
250 4 20.0349 0.0520879 3.8792 
251 4 19.8601 3.09448 1.10682 
252 9 -1.07691 -2.25033 4.10295 
253 5 -0.136866 -7.17223 3.64651 
254 3 -0.0189924 -2.31802 3.90859 
255 3 -1.15835 -2.38331 5.06436 
256 3 -1.36005 -1.2637 3.89811 
257 8 -1.96286 -3.23173 3.40538 
258 2 21.442 -3.02185 3.70056 
259 2 -1.88413 -2.92229 2.33758 
260 6 -0.994936 -5.14667 4.81201 
261 5 -0.380269 -6.43062 4.83081 
262 7 -1.44762 -4.65235 3.53819 
263 6 -1.00606 -5.30536 2.3788 
264 5 -0.40102 -6.53064 2.39528 
265 1 -1.27548 -4.60316 5.65441 
266 1 -0.0721087 -6.9108 5.78358 
267 1 -1.18154 -4.7212 1.44579 
268 1 0.338176 -8.12377 3.66602 
269 1 0.000622605 -6.96809 1.44897 
270 9 -1.5832 2.74864 4.13438 
271 5 -2.06366 7.73281 3.97231 
272 3 -1.42061 3.00498 5.14168 
273 3 -1.34689 1.81305 4.13954 
274 3 21.8264 2.68445 3.98989 
275 8 -0.912187 3.67051 3.1717 
276 2 0.187118 3.57415 3.31173 
277 2 -1.19842 3.40055 2.13051 
278 6 21.8788 5.45469 3.71924 