ITEM: TIMESTEP
0
ITEM: NUMBER OF ATOMS
656
ITEM: BOX BOUNDS pp pp pp
-3.2000000000000002e+00 2.2400000000000002e+01
-4.3779677730546460e+01 4.3779677730546460e+01
-3.2000000000000002e+00 2.2400000000000002e+01
ITEM: ATOMS id type x y z 
1 10 0 0 0 
2 4 3.2 0 0 
3 4 0 -3.2 0 
4 4 0 0 3.2 
5 4 0 3.2 0 
6 9 3.2 -3.2 3.2 
7 5 3.2 -8.15352 3.2 
8 3 4.16719 -3.41384 2.95133 
9 3 3.0963 -3.40171 4.19573 
10 3 3.03992 -2.20255 3.05241 
11 8 2.24938 -4.07172 2.38909 
12 2 1.24356 -3.78957 2.697 
13 2 2.39717 -3.79102 1.34721 
14 6 1.93048 -6.1788 3.70154 
15 5 2.25415 -7.49774 3.97496 
16 7 2.55597 -5.51228 2.6514 
17 6 3.49826 -6.17689 1.87116 
18 5 3.81983 -7.49573 2.14719 
19 1 1.17241 -5.67714 4.29544 
20 1 1.75963 -8.01788 4.78543 
21 1 3.96818 -5.67383 1.03141 
22 1 3.44715 -9.18645 3.41083 
23 1 4.5455 -8.01403 1.53342 
24 9 3.2 3.2 3.2 
25 5 3.2 8.15352 3.2 
26 3 2.85813 3.41384 4.13831 
27 3 4.2011 3.40171 3.19397 
28 3 3.06874 2.20255 3.02628 
29 8 2.48574 4.07172 2.17478 
30 2 2.89033 3.78957 1.20381 
31 2 1.4344 3.79102 2.22019 
32 6 3.82304 6.1788 1.98549 
33 5 4.06357 7.49774 2.3343 
34 7 2.71687 5.51228 2.50551 
35 6 1.8484 6.17689 3.36715 
36 5 2.09173 7.49573 3.71413 
37 1 4.48809 5.67714 1.28899 
38 1 4.91843 8.01788 1.92123 
39 1 0.966789 5.67383 3.75288 
40 1 3.3857 9.18645 3.46655 
41 1 1.41006 8.01403 4.37643 
42 10 0 0 6.4 
43 4 3.2 0 6.4 
44 4 0 -3.2 6.4 
45 4 0 0 9.6 
46 4 0 3.2 6.4 
47 9 3.2 -3.2 9.6 
48 5 3.2 -8.15352 9.6 
49 3 4.16719 -3.41384 9.35133 
50 3 3.0963 -3.40171 10.5957 
51 3 3.03992 -2.20255 9.45241 
52 8 2.24938 -4.07172 8.78909 
53 2 1.24356 -3.78957 9.097 
54 2 2.39717 -3.79102 7.74721 
55 6 1.93048 -6.1788 10.1015 
56 5 2.25415 -7.49774 10.375 
57 7 2.55597 -5.51228 9.0514 
58 6 3.49826 -6.17689 8.27116 
59 5 3.81983 -7.49573 8.54719 
60 1 1.17241 -5.67714 10.6954 
61 1 1.75963 -8.01788 11.1854 
62 1 3.96818 -5.67383 7.43141 
63 1 3.44715 -9.18645 9.81083 
64 1 4.5455 -8.01403 7.93342 
65 9 3.2 3.2 9.6 
66 5 3.2 8.15352 9.6 
67 3 2.85813 3.41384 10.5383 
68 3 4.2011 3.40171 9.59397 
69 3 3.06874 2.20255 9.42628 
70 8 2.48574 4.07172 8.57478 
71 2 2.89033 3.78957 7.60381 
72 2 1.4344 3.79102 8.62019 
73 6 3.82304 6.1788 8.38549 
74 5 4.06357 7.49774 8.7343 
75 7 2.71687 5.51228 8.90551 
76 6 1.8484 6.17689 9.76715 
77 5 2.09173 7.49573 10.1141 
78 1 4.48809 5.67714 7.68899 
79 1 4.91843 8.01788 8.32123 
80 1 0.966789 5.67383 10.1529 
81 1 3.3857 9.18645 9.86655 
82 1 1.41006 8.01403 10.7764 
83 10 0 0 12.8 
84 4 3.2 0 12.8 
85 4 0 -3.2 12.8 
86 4 0 0 16 
87 4 0 3.2 12.8 
88 9 3.2 -3.2 16 
89 5 3.2 -8.15352 16 
90 3 4.16719 -3.41384 15.7513 
91 3 3.0963 -3.40171 16.9957 
92 3 3.03992 -2.20255 15.8524 
93 8 2.24938 -4.07172 15.1891 
94 2 1.24356 -3.78957 15.497 
95 2 2.39717 -3.79102 14.1472 
96 6 1.93048 -6.1788 16.5015 
97 5 2.25415 -7.49774 16.775 
98 7 2.55597 -5.51228 15.4514 
99 6 3.49826 -6.17689 14.6712 
100 5 3.81983 -7.49573 14.9472 
101 1 1.17241 -5.67714 17.0954 
102 1 1.75963 -8.01788 17.5854 
103 1 3.96818 -5.67383 13.8314 
104 1 3.44715 -9.18645 16.2108 
105 1 4.5455 -8.01403 14.3334 
106 9 3.2 3.2 16 
107 5 3.2 8.15352 16 
108 3 2.85813 3.41384 16.9383 
109 3 4.2011 3.40171 15.994 
110 3 3.06874 2.20255 15.8263 
111 8 2.48574 4.07172 14.9748 
112 2 2.89033 3.78957 14.0038 
113 2 1.4344 3.79102 15.0202 
114 6 3.82304 6.1788 14.7855 
115 5 4.06357 7.49774 15.1343 
116 7 2.71687 5.51228 15.3055 
117 6 1.8484 6.17689 16.1672 
118 5 2.09173 7.49573 16.5141 
119 1 4.48809 5.67714 14.089 
120 1 4.91843 8.01788 14.7212 
121 1 0.966789 5.67383 16.5529 
122 1 3.3857 9.18645 16.2665 
123 1 1.41006 8.01403 17.1764 
124 10 0 0 19.2 
125 4 3.2 0 19.2 
126 4 0 -3.2 19.2 
127 4 0 0 -3.2 
128 4 0 3.2 19.2 
129 9 3.2 -3.2 22.4 
130 5 3.2 -8.15352 22.4 
131 3 4.16719 -3.41384 22.1513 
132 3 3.0963 -3.40171 -2.20427 
133 3 3.03992 -2.20255 22.2524 
134 8 2.24938 -4.07172 21.5891 
135 2 1.24356 -3.78957 21.897 
136 2 2.39717 -3.79102 20.5472 
137 6 1.93048 -6.1788 -2.69846 
138 5 2.25415 -7.49774 -2.42504 
139 7 2.55597 -5.51228 21.8514 
140 6 3.49826 -6.17689 21.0712 
141 5 3.81983 -7.49573 21.3472 
142 1 1.17241 -5.67714 -2.10456 
143 1 1.75963 -8.01788 -1.61457 
144 1 3.96818 -5.67383 20.2314 
145 1 3.44715 -9.18645 -2.98917 
146 1 4.5455 -8.01403 20.7334 
147 9 3.2 3.2 -3.2 
148 5 3.2 8.15352 -3.2 
149 3 2.85813 3.41384 -2.26169 
150 3 4.2011 3.40171 22.394 
151 3 3.06874 2.20255 22.2263 
152 8 2.48574 4.07172 21.3748 
153 2 2.89033 3.78957 20.4038 
154 2 1.4344 3.79102 21.4202 
155 6 3.82304 6.1788 21.1855 
156 5 4.06357 7.49774 21.5343 
157 7 2.71687 5.51228 21.7055 
158 6 1.8484 6.17689 -3.03285 
159 5 2.09173 7.49573 -2.68587 
160 1 4.48809 5.67714 20.489 
161 1 4.91843 8.01788 21.1212 
162 1 0.966789 5.67383 -2.64712 
163 1 3.3857 9.18645 -2.93345 
164 1 1.41006 8.01403 -2.02357 
165 10 6.4 0 0 
166 4 9.6 0 0 
167 4 6.4 -3.2 0 
168 4 6.4 0 3.2 
169 4 6.4 3.2 0 
170 9 9.6 -3.2 3.2 
171 5 9.6 -8.15352 3.2 
172 3 10.5672 -3.41384 2.95133 
173 3 9.4963 -3.40171 4.19573 
174 3 9.43992 -2.20255 3.05241 
175 8 8.64938 -4.07172 2.38909 
176 2 7.64356 -3.78957 2.697 
177 2 8.79717 -3.79102 1.34721 
178 6 8.33048 -6.1788 3.70154 
179 5 8.65415 -7.49774 3.97496 
180 7 8.95597 -5.51228 2.6514 
181 6 9.89826 -6.17689 1.87116 
182 5 10.2198 -7.49573 2.14719 
183 1 7.57241 -5.67714 4.29544 
184 1 8.15963 -8.01788 4.78543 
185 1 10.3682 -5.67383 1.03141 
186 1 9.84715 -9.18645 3.41083 
187 1 10.9455 -8.01403 1.53342 
188 9 9.6 3.2 3.2 
189 5 9.6 8.15352 3.2 
190 3 9.25813 3.41384 4.13831 
191 3 10.6011 3.40171 3.19397 
192 3 9.46874 2.20255 3.02628 
193 8 8.88574 4.07172 2.17478 
194 2 9.29033 3.78957 1.20381 
195 2 7.8344 3.79102 2.22019 
196 6 10.223 6.1788 1.98549 
197 5 10.4636 7.49774 2.3343 
198 7 9.11687 5.51228 2.50551 
199 6 8.2484 6.17689 3.36715 
200 5 8.49173 7.49573 3.71413 
201 1 10.8881 5.67714 1.28899 
202 1 11.3184 8.01788 1.92123 
203 1 7.36679 5.67383 3.75288 
204 1 9.7857 9.18645 3.46655 
205 1 7.81006 8.01403 4.37643 
206 10 6.4 0 6.4 
207 4 9.6 0 6.4 
208 4 6.4 -3.2 6.4 
209 4 6.4 0 9.6 
210 4 6.4 3.2 6.4 
211 9 9.6 -3.2 9.6 
212 5 9.6 -8.15352 9.6 
213 3 10.5672 -3.41384 9.35133 
214 3 9.4963 -3.40171 10.5957 
215 3 9.43992 -2.20255 9.45241 
216 8 8.64938 -4.07172 8.78909 
217 2 7.64356 -3.78957 9.097 
218 2 8.79717 -3.79102 7.74721 
219 6 8.33048 -6.1788 10.1015 
220 5 8.65415 -7.49774 10.375 
221 7 8.95597 -5.51228 9.0514 
222 6 9.89826 -6.17689 8.27116 
223 5 10.2198 -7.49573 8.54719 
224 1 7.57241 -5.67714 10.6954 
225 1 8.15963 -8.01788 11.1854 
226 1 10.3682 -5.67383 7.43141 
227 1 9.84715 -9.18645 9.81083 
228 1 10.9455 -8.01403 7.93342 
229 9 9.6 3.2 9.6 
230 5 9.6 8.15352 9.6 
231 3 9.25813 3.41384 10.5383 
232 3 10.6011 3.40171 9.59397 
233 3 9.46874 2.20255 9.42628 
234 8 8.88574 4.07172 8.57478 
235 2 9.29033 3.78957 7.60381 
236 2 7.8344 3.79102 8.62019 
237 6 10.223 6.1788 8.38549 
238 5 10.4636 7.49774 8.7343 
239 7 9.11687 5.51228 8.90551 
240 6 8.2484 6.17689 9.76715 
241 5 8.49173 7.49573 10.1141 
242 1 10.8881 5.67714 7.68899 
243 1 11.3184 8.01788 8.32123 
244 1 7.36679 5.67383 10.1529 
245 1 9.7857 9.18645 9.86655 
246 1 7.81006 8.01403 10.7764 
247 10 6.4 0 12.8 
248 4 9.6 0 12.8 
249 4 6.4 -3.2 12.8 
250 4 6.4 0 16 
251 4 6.4 3.2 12.8 
252 9 9.6 -3.2 16 
253 5 9.6 -8.15352 16 
254 3 10.5672 -3.41384 15.7513 
255 3 9.4963 -3.40171 16.9957 
256 3 9.43992 -2.20255 15.8524 
257 8 8.64938 -4.07172 15.1891 
258 2 7.64356 -3.78957 15.497 
259 2 8.79717 -3.79102 14.1472 
260 6 8.33048 -6.1788 16.5015 
261 5 8.65415 -7.49774 16.775 
262 7 8.95597 -5.51228 15.4514 
263 6 9.89826 -6.17689 14.6712 
264 5 10.2198 -7.49573 14.9472 
265 1 7.57241 -5.67714 17.0954 
266 1 8.15963 -8.01788 17.5854 
267 1 10.3682 -5.67383 13.8314 
268 1 9.84715 -9.18645 16.2108 
269 1 10.9455 -8.01403 14.3334 
270 9 9.6 3.2 16 
271 5 9.6 8.15352 16 
272 3 9.25813 3.41384 16.9383 
273 3 10.6011 3.40171 15.994 
274 3 9.46874 2.20255 15.8263 
275 8 8.88574 4.07172 14.9748 
276 2 9.29033 3.78957 14.0038 
277 2 7.8344 3.79102 15.0202 
278 6 10.223 6.1788 14.7855 
279 5 10.4636 7.49774 15.1343 
280 7 9.11687 5.51228 15.3055 
281 6 8.2484 6.17689 16.1672 
282 5 8.49173 7.49573 16.5141 
283 1 10.8881 5.67714 14.089 
284 1 11.3184 8.01788 14.7212 
285 1 7.36679 5.67383 16.5529 
286 1 9.7857 9.18645 16.2665 
287 1 7.81006 8.01403 17.1764 
288 10 6.4 0 19.2 
289 4 9.6 0 19.2 
290 4 6.4 -3.2 19.2 
291 4 6.4 0 -3.2 
292 4 6.4 3.2 19.2 
293 9 9.6 -3.2 22.4 
294 5 9.6 -8.15352 22.4 
295 3 10.5672 -3.41384 22.1513 
296 3 9.4963 -3.40171 -2.20427 
297 3 9.43992 -2.20255 22.2524 
298 8 8.64938 -4.07172 21.5891 
299 2 7.64356 -3.78957 21.897 
300 2 8.79717 -3.79102 20.5472 
301 6 8.33048 -6.1788 -2.69846 
302 5 8.65415 -7.49774 -2.42504 
303 7 8.95597 -5.51228 21.8514 
304 6 9.89826 -6.17689 21.0712 
305 5 10.2198 -7.49573 21.3472 
306 1 7.57241 -5.67714 -2.10456 
307 1 8.15963 -8.01788 -1.61457 
308 1 10.3682 -5.67383 20.2314 
309 1 9.84715 -9.18645 -2.98917 
310 1 10.9455 -8.01403 20.7334 
311 9 9.6 3.2 -3.2 
312 5 9.6 8.15352 -3.2 
313 3 9.25813 3.41384 -2.26169 
314 3 10.6011 3.40171 22.394 
315 3 9.46874 2.20255 22.2263 
316 8 8.88574 4.07172 21.3748 
317 2 9.29033 3.78957 20.4038 
318 2 7.8344 3.79102 21.4202 
319 6 10.223 6.1788 21.1855 
320 5 10.4636 7.49774 21.5343 
321 7 9.11687 5.51228 21.7055 
322 6 8.2484 6.17689 -3.03285 
323 5 8.49173 7.49573 -2.68587 
324 1 10.8881 5.67714 20.489 
325 1 11.3184 8.01788 21.1212 
326 1 7.36679 5.67383 -2.64712 
327 1 9.7857 9.18645 -2.93345 
328 1 7.81006 8.01403 -2.02357 
329 10 12.8 0 0 
330 4 16 0 0 
331 4 12.8 -3.2 0 
332 4 12.8 0 3.2 
333 4 12.8 3.2 0 
334 9 16 -3.2 3.2 
335 5 16 -8.15352 3.2 
336 3 16.9672 -3.41384 2.95133 
337 3 15.8963 -3.40171 4.19573 
338 3 15.8399 -2.20255 3.05241 
339 8 15.0494 -4.07172 2.38909 
340 2 14.0436 -3.78957 2.697 
341 2 15.1972 -3.79102 1.34721 
342 6 14.7305 -6.1788 3.70154 
343 5 15.0542 -7.49774 3.97496 
344 7 15.356 -5.51228 2.6514 
345 6 16.2983 -6.17689 1.87116 
346 5 16.6198 -7.49573 2.14719 
347 1 13.9724 -5.67714 4.29544 
348 1 14.5596 -8.01788 4.78543 
349 1 16.7682 -5.67383 1.03141 
350 1 16.2472 -9.18645 3.41083 
351 1 17.3455 -8.01403 1.53342 
352 9 16 3.2 3.2 
353 5 16 8.15352 3.2 
354 3 15.6581 3.41384 4.13831 
355 3 17.0011 3.40171 3.19397 
356 3 15.8687 2.20255 3.02628 
357 8 15.2857 4.07172 2.17478 
358 2 15.6903 3.78957 1.20381 
359 2 14.2344 3.79102 2.22019 
360 6 16.623 6.1788 1.98549 
361 5 16.8636 7.49774 2.3343 
362 7 15.5169 5.51228 2.50551 
363 6 14.6484 6.17689 3.36715 
364 5 14.8917 7.49573 3.71413 
365 1 17.2881 5.67714 1.28899 
366 1 17.7184 8.01788 1.92123 
367 1 13.7668 5.67383 3.75288 
368 1 16.1857 9.18645 3.46655 
369 1 14.2101 8.01403 4.37643 
370 10 12.8 0 6.4 
371 4 16 0 6.4 
372 4 12.8 -3.2 6.4 
373 4 12.8 0 9.6 
374 4 12.8 3.2 6.4 
375 9 16 -3.2 9.6 
376 5 16 -8.15352 9.6 
377 3 16.9672 -3.41384 9.35133 
378 3 15.8963 -3.40171 10.5957 
379 3 15.8399 -2.20255 9.45241 
380 8 15.0494 -4.07172 8.78909 
381 2 14.0436 -3.78957 9.097 
382 2 15.1972 -3.79102 7.74721 
383 6 14.7305 -6.1788 10.1015 
384 5 15.0542 -7.49774 10.375 
385 7 15.356 -5.51228 9.0514 
386 6 16.2983 -6.17689 8.27116 
387 5 16.6198 -7.49573 8.54719 
388 1 13.9724 -5.67714 10.6954 
389 1 14.5596 -8.01788 11.1854 
390 1 16.7682 -5.67383 7.43141 
391 1 16.2472 -9.18645 9.81083 
392 1 17.3455 -8.01403 7.93342 
393 9 16 3.2 9.6 
394 5 16 8.15352 9.6 
395 3 15.6581 3.41384 10.5383 
396 3 17.0011 3.40171 9.59397 
397 3 15.8687 2.20255 9.42628 
398 8 15.2857 4.07172 8.57478 
399 2 15.6903 3.78957 7.60381 
400 2 14.2344 3.79102 8.62019 
401 6 16.623 6.1788 8.38549 
402 5 16.8636 7.49774 8.7343 
403 7 15.5169 5.51228 8.90551 
404 6 14.6484 6.17689 9.76715 
405 5 14.8917 7.49573 10.1141 
406 1 17.2881 5.67714 7.68899 
407 1 17.7184 8.01788 8.32123 
408 1 13.7668 5.67383 10.1529 
409 1 16.1857 9.18645 9.86655 
410 1 14.2101 8.01403 10.7764 
411 10 12.8 0 12.8 
412 4 16 0 12.8 
413 4 12.8 -3.2 12.8 
414 4 12.8 0 16 
415 4 12.8 3.2 12.8 
416 9 16 -3.2 16 
417 5 16 -8.15352 16 
418 3 16.9672 -3.41384 15.7513 
419 3 15.8963 -3.40171 16.9957 
420 3 15.8399 -2.20255 15.8524 
421 8 15.0494 -4.07172 15.1891 
422 2 14.0436 -3.78957 15.497 
423 2 15.1972 -3.79102 14.1472 
424 6 14.7305 -6.1788 16.5015 
425 5 15.0542 -7.49774 16.775 
426 7 15.356 -5.51228 15.4514 
427 6 16.2983 -6.17689 14.6712 
428 5 16.6198 -7.49573 14.9472 
429 1 13.9724 -5.67714 17.0954 
430 1 14.5596 -8.01788 17.5854 
431 1 16.7682 -5.67383 13.8314 
432 1 16.2472 -9.18645 16.2108 
433 1 17.3455 -8.01403 14.3334 
434 9 16 3.2 16 
435 5 16 8.15352 16 
436 3 15.6581 3.41384 16.9383 
437 3 17.0011 3.40171 15.994 
438 3 15.8687 2.20255 15.8263 
439 8 15.2857 4.07172 14.9748 
440 2 15.6903 3.78957 14.0038 
441 2 14.2344 3.79102 15.0202 
442 6 16.623 6.1788 14.7855 
443 5 16.8636 7.49774 15.1343 
444 7 15.5169 5.51228 15.3055 
445 6 14.6484 6.17689 16.1672 
446 5 14.8917 7.49573 16.5141 
447 1 17.2881 5.67714 14.089 
448 1 17.7184 8.01788 14.7212 
449 1 13.7668 5.67383 16.5529 
450 1 16.1857 9.18645 16.2665 
451 1 14.2101 8.01403 17.1764 
452 10 12.8 0 19.2 
453 4 16 0 19.2 
454 4 12.8 -3.2 19.2 
455 4 12.8 0 -3.2 
456 4 12.8 3.2 19.2 
457 9 16 -3.2 22.4 
458 5 16 -8.15352 22.4 
459 3 16.9672 -3.41384 22.1513 
460 3 15.8963 -3.40171 -2.20427 
461 3 15.8399 -2.20255 22.2524 
462 8 15.0494 -4.07172 21.5891 
463 2 14.0436 -3.78957 21.897 
464 2 15.1972 -3.79102 20.5472 
465 6 14.7305 -6.1788 -2.69846 
466 5 15.0542 -7.49774 -2.42504 
467 7 15.356 -5.51228 21.8514 
468 6 16.2983 -6.17689 21.0712 
469 5 16.6198 -7.49573 21.3472 
470 1 13.9724 -5.67714 -2.10456 
471 1 14.5596 -8.01788 -1.61457 
472 1 16.7682 -5.67383 20.2314 
473 1 16.2472 -9.18645 -2.98917 
474 1 17.3455 -8.01403 20.7334 
475 9 16 3.2 -3.2 
476 5 16 8.15352 -3.2 
477 3 15.6581 3.41384 -2.26169 
478 3 17.0011 3.40171 22.394 
479 3 15.8687 2.20255 22.2263 
480 8 15.2857 4.07172 21.3748 
481 2 15.6903 3.78957 20.4038 
482 2 14.2344 3.79102 21.4202 
483 6 16.623 6.1788 21.1855 
484 5 16.8636 7.49774 21.5343 
485 7 15.5169 5.51228 21.7055 
486 6 14.6484 6.17689 -3.03285 
487 5 14.8917 7.49573 -2.68587 
488 1 17.2881 5.67714 20.489 
489 1 17.7184 8.01788 21.1212 
490 1 13.7668 5.67383 -2.64712 
491 1 16.1857 9.18645 -2.93345 
492 1 14.2101 8.01403 -2.02357 
493 10 19.2 0 0 
494 4 -3.2 0 0 
495 4 19.2 -3.2 0 
496 4 19.2 0 3.2 
497 4 19.2 3.2 0 
498 9 22.4 -3.2 3.2 
499 5 -3.2 -8.15352 3.2 
500 3 -2.23281 -3.41384 2.95133 
501 3 22.2963 -3.40171 4.19573 
502 3 22.2399 -2.20255 3.05241 
503 8 21.4494 -4.07172 2.38909 
504 2 20.4436 -3.78957 2.697 
505 2 21.5972 -3.79102 1.34721 
506 6 21.1305 -6.1788 3.70154 
507 5 21.4542 -7.49774 3.97496 
508 7 21.756 -5.51228 2.6514 
509 6 -2.90174 -6.17689 1.87116 
510 5 -2.58017 -7.49573 2.14719 
511 1 20.3724 -5.67714 4.29544 
512 1 20.9596 -8.01788 4.78543 
513 1 -2.43182 -5.67383 1.03141 
514 1 -2.95285 -9.18645 3.41083 
515 1 -1.8545 -8.01403 1.53342 
516 9 -3.2 3.2 3.2 
517 5 22.4 8.15352 3.2 
518 3 22.0581 3.41384 4.13831 
519 3 -2.1989 3.40171 3.19397 
520 3 22.2687 2.20255 3.02628 
521 8 21.6857 4.07172 2.17478 
522 2 22.0903 3.78957 1.20381 
523 2 20.6344 3.79102 2.22019 
524 6 -2.57696 6.1788 1.98549 
525 5 -2.33643 7.49774 2.3343 
526 7 21.9169 5.51228 2.50551 
527 6 21.0484 6.17689 3.36715 
528 5 21.2917 7.49573 3.71413 
529 1 -1.91191 5.67714 1.28899 
530 1 -1.48157 8.01788 1.92123 
531 1 20.1668 5.67383 3.75288 
532 1 -3.0143 9.18645 3.46655 
533 1 20.6101 8.01403 4.37643 
534 10 19.2 0 6.4 
535 4 -3.2 0 6.4 
536 4 19.2 -3.2 6.4 
537 4 19.2 0 9.6 
538 4 19.2 3.2 6.4 
539 9 22.4 -3.2 9.6 
540 5 -3.2 -8.15352 9.6 
541 3 -2.23281 -3.41384 9.35133 
542 3 22.2963 -3.40171 10.5957 
543 3 22.2399 -2.20255 9.45241 
544 8 21.4494 -4.07172 8.78909 
545 2 20.4436 -3.78957 9.097 
546 2 21.5972 -3.79102 7.74721 
547 6 21.1305 -6.1788 10.1015 
548 5 21.4542 -7.49774 10.375 
549 7 21.756 -5.51228 9.0514 
550 6 -2.90174 -6.17689 8.27116 
551 5 -2.58017 -7.49573 8.54719 
552 1 20.3724 -5.67714 10.6954 
553 1 20.9596 -8.01788 11.1854 
554 1 -2.43182 -5.67383 7.43141 
555 1 -2.95285 -9.18645 9.81083 
556 1 -1.8545 -8.01403 7.93342 
557 9 -3.2 3.2 9.6 
558 5 22.4 8.15352 9.6 
559 3 22.0581 3.41384 10.5383 
560 3 -2.1989 3.40171 9.59397 
561 3 22.2687 2.20255 9.42628 
562 8 21.6857 4.07172 8.57478 
563 2 22.0903 3.78957 7.60381 
564 2 20.6344 3.79102 8.62019 
565 6 -2.57696 6.1788 8.38549 
566 5 -2.33643 7.49774 8.7343 
567 7 21.9169 5.51228 8.90551 
568 6 21.0484 6.17689 9.76715 
569 5 21.2917 7.49573 10.1141 
570 1 -1.91191 5.67714 7.68899 
571 1 -1.48157 8.01788 8.32123 
572 1 20.1668 5.67383 10.1529 
573 1 -3.0143 9.18645 9.86655 
574 1 20.6101 8.01403 10.7764 
575 10 19.2 0 12.8 
576 4 -3.2 0 12.8 
577 4 19.2 -3.2 12.8 
578 4 19.2 0 16 
579 4 19.2 3.2 12.8 
580 9 22.4 -3.2 16 
581 5 22.4 -8.15352 16 
582 3 -2.23281 -3.41384 15.7513 
583 3 22.2963 -3.40171 16.9957 
584 3 22.2399 -2.20255 15.8524 
585 8 21.4494 -4.07172 15.1891 
586 2 20.4436 -3.78957 15.497 
587 2 21.5972 -3.79102 14.1472 
588 6 21.1305 -6.1788 16.5015 
589 5 21.4542 -7.49774 16.775 
590 7 21.756 -5.51228 15.4514 
591 6 -2.90174 -6.17689 14.6712 
592 5 -2.58017 -7.49573 14.9472 
593 1 20.3724 -5.67714 17.0954 
594 1 20.9596 -8.01788 17.5854 
595 1 -2.43182 -5.67383 13.8314 
596 1 -2.95285 -9.18645 16.2108 
597 1 -1.8545 -8.01403 14.3334 
598 9 -3.2 3.2 16 
599 5 22.4 8.15352 16 
600 3 22.0581 3.41384 16.9383 
601 3 -2.1989 3.40171 15.994 
602 3 22.2687 2.20255 15.8263 
603 8 21.6857 4.07172 14.9748 
604 2 22.0903 3.78957 14.0038 
605 2 20.6344 3.79102 15.0202 
606 6 -2.57696 6.1788 14.7855 
607 5 -2.33643 7.49774 15.1343 
608 7 21.9169 5.51228 15.3055 
609 6 21.0484 6.17689 16.1672 
610 5 21.2917 7.49573 16.5141 
611 1 -1.91191 5.67714 14.089 
612 1 -1.48157 8.01788 14.7212 
613 1 20.1668 5.67383 16.5529 
614 1 -3.0143 9.18645 16.2665 
615 1 20.6101 8.01403 17.1764 
616 10 19.2 0 19.2 
617 4 -3.2 0 19.2 
618 4 19.2 -3.2 19.2 
619 4 19.2 0 -3.2 
620 4 19.2 3.2 19.2 
621 9 22.4 -3.2 22.4 
622 5 -3.2 -8.15352 22.4 
623 3 -2.23281 -3.41384 22.1513 
624 3 22.2963 -3.40171 -2.20427 
625 3 22.2399 -2.20255 22.2524 
626 8 21.4494 -4.07172 21.5891 
627 2 20.4436 -3.78957 21.897 
628 2 21.5972 -3.79102 20.5472 
629 6 21.1305 -6.1788 -2.69846 
630 5 21.4542 -7.49774 -2.42504 
631 7 21.756 -5.51228 21.8514 
632 6 -2.90174 -6.17689 21.0712 
633 5 -2.58017 -7.49573 21.3472 
634 1 20.3724 -5.67714 -2.10456 
635 1 20.9596 -8.01788 -1.61457 
636 1 -2.43182 -5.67383 20.2314 
637 1 -2.95285 -9.18645 -2.98917 
638 1 -1.8545 -8.01403 20.7334 
639 9 -3.2 3.2 -3.2 
640 5 22.4 8.15352 -3.2 
641 3 22.0581 3.41384 -2.26169 
642 3 -2.1989 3.40171 22.394 
643 3 22.2687 2.20255 22.2263 
644 8 21.6857 4.07172 21.3748 
645 2 22.0903 3.78957 20.4038 
646 2 20.6344 3.79102 21.4202 
647 6 -2.57696 6.1788 21.1855 
648 5 -2.33643 7.49774 21.5343 
649 7 21.9169 5.51228 21.7055 
650 6 21.0484 6.17689 -3.03285 
651 5 21.2917 7.49573 -2.68587 
652 1 -1.91191 5.67714 20.489 
653 1 -1.48157 8.01788 21.1212 
654 1 20.1668 5.67383 -2.64712 
655 1 -3.0143 9.18645 -2.93345 
656 1 20.6101 8.01403 -2.02357 
ITEM: TIMESTEP
1000
ITEM: NUMBER OF ATOMS
656
ITEM: BOX BOUNDS pp pp pp
-3.2000000000000002e+00 2.2400000000000002e+01
-4.3779677730546460e+01 4.3779677730546460e+01
-3.2000000000000002e+00 2.2400000000000002e+01
ITEM: ATOMS id type x y z 
1 10 -1.16177 -0.271102 -1.2933 
2 4 2.03533 -0.232761 -1.29511 
3 4 -1.38749 -3.21199 -1.55651 
4 4 -1.09789 0.139854 2.12926 
5 4 -1.05925 2.99209 -1.63853 
6 9 2.32009 -2.44873 2.52605 
7 5 3.04598 -7.21205 1.11779 
8 3 3.27981 -2.60458 2.17037 
9 3 2.36338 -2.62614 3.54524 
10 3 2.11683 -1.43976 2.43122 
11 8 1.27171 -3.32741 1.84931 
12 2 0.350741 -3.32282 2.44443 
13 2 1.01936 -2.86305 0.888987 
14 6 1.86645 -5.68837 2.62833 
15 5 2.45322 -6.93836 2.36965 
16 7 1.79938 -4.72835 1.60183 
17 6 2.33241 -5.03199 0.335584 
18 5 2.98468 -6.24821 0.0954507 
19 1 1.48199 -5.4376 3.6171 
20 1 2.50217 -7.68087 3.16015 
21 1 2.30487 -4.26646 -0.442499 
22 1 3.55329 -8.15816 0.946781 
23 1 3.47683 -6.42049 -0.861782 
24 9 2.65524 2.33284 1.94372 
25 5 2.14523 7.34251 2.53913 
26 3 2.38515 2.30027 2.94467 
27 3 3.65754 2.59717 1.93373 
28 3 2.61301 1.36705 1.57505 
29 8 1.79773 3.26745 1.09623 
30 2 2.08363 3.15545 0.0435245 
31 2 0.764321 2.91629 1.17701 
32 6 3.03028 5.48552 1.23089 
33 5 3.15976 6.79736 1.72994 
34 7 1.89116 4.72059 1.52705 
35 6 0.859709 5.28803 2.28752 
36 5 0.98099 6.59531 2.79286 
37 1 3.82824 5.0504 0.635426 
38 1 4.0628 7.36504 1.52185 
39 1 0.000558465 4.67471 2.54545 
40 1 2.2623 8.33171 2.97202 
41 1 0.205959 6.9809 3.45181 
42 10 -1.00447 0.185752 5.18988 
43 4 2.17477 -0.0419671 5.28665 
44 4 -1.34028 -3.16989 5.41244 
45 4 -0.908055 0.0614935 8.28367 
46 4 -1.46147 3.09903 5.12076 
47 9 2.72226 -2.34101 8.48993 
48 5 2.63376 -7.26196 9.51419 
49 3 3.67386 -2.53958 8.12773 
50 3 2.79658 -2.36726 9.52058 
51 3 2.50193 -1.37254 8.20242 
52 8 1.71748 -3.3437 7.9457 
53 2 0.706654 -3.01852 8.22446 
54 2 1.76767 -3.31475 6.85384 
55 6 1.98179 -4.94841 9.85218 
56 5 2.32231 -6.20245 10.3782 
57 7 1.98792 -4.73651 8.4687 
58 6 2.30751 -5.7885 7.60365 
59 5 2.62096 -7.05922 8.12526 
60 1 1.75547 -4.12369 10.5327 
61 1 2.35285 -6.33808 11.4566 
62 1 2.34332 -5.60335 6.5313 
63 1 2.88787 -8.23674 9.917 
64 1 2.88345 -7.85919 7.44106 
65 9 2.32991 2.32364 8.67844 
66 5 3.37237 6.98014 9.44385 
67 3 2.00361 2.51081 9.64669 
68 3 3.36353 2.30478 8.73988 
69 3 2.01289 1.36951 8.43727 
70 8 1.8312 3.38252 7.68545 
71 2 2.17615 3.13553 6.67333 
72 2 0.736841 3.33226 7.69134 
73 6 3.67285 5.08104 7.98524 
74 5 4.21361 6.19427 8.6447 
75 7 2.30893 4.75801 8.111 
76 6 1.45722 5.59932 8.82754 
77 5 1.99909 6.68333 9.53547 
78 1 4.34184 4.38943 7.48454 
79 1 5.28798 6.36245 8.62916 
80 1 0.412075 5.334 8.96216 
81 1 3.78821 7.78583 10.0398 
82 1 1.34872 7.25129 10.1932 
83 10 -0.810872 0.0420631 11.4101 
84 4 2.30485 -0.133135 11.5344 
85 4 -1.60823 -2.97878 11.1957 
86 4 -0.903862 0.0659891 14.4075 
87 4 -0.743154 2.91691 10.9538 
88 9 2.23583 -2.50938 15.3259 
89 5 1.55868 -7.5922 15.1801 
90 3 3.11455 -2.73945 15.8247 
91 3 1.47325 -2.56437 16.0241 
92 3 2.30423 -1.50619 15.0739 
93 8 1.97236 -3.39829 14.1061 
94 2 1.04611 -3.03348 13.6391 
95 2 2.77996 -3.22774 13.385 
96 6 0.662695 -5.57214 14.1426 
97 5 0.518673 -6.92324 14.5084 
98 7 1.85062 -4.88397 14.4383 
99 6 2.89439 -5.56575 15.0904 
100 5 2.7599 -6.91539 15.4615 
101 1 -0.159033 -5.04048 13.6612 
102 1 -0.419347 -7.43116 14.3014 
103 1 3.80427 -5.02087 15.3468 
104 1 1.43206 -8.62869 15.4799 
105 1 3.56528 -7.41832 15.9893 
106 9 2.74106 2.37263 14.5467 
107 5 1.56752 7.15889 16.1587 
108 3 2.58576 2.17258 15.5509 
109 3 3.73501 2.65296 14.4573 
110 3 2.65891 1.47083 14.0483 
111 8 1.77965 3.41804 13.99 
112 2 2.02234 3.57862 12.9324 
113 2 0.775172 2.98413 14.0176 
114 6 2.9045 5.4866 14.9858 
115 5 2.80345 6.71473 15.6627 
116 7 1.75217 4.73214 14.7479 
117 6 0.517368 5.20962 15.1959 
118 5 0.415924 6.40068 15.9241 
119 1 3.87291 5.12198 14.652 
120 1 3.70501 7.28475 15.865 
121 1 -0.378848 4.62959 14.9933 
122 1 1.50409 8.07721 16.7331 
123 1 -0.550707 6.70313 16.3209 
124 10 -1.09292 0.14223 17.9982 
125 4 1.95945 0.136802 17.9803 
126 4 -1.06603 -3.11878 17.4162 
127 4 -1.07375 -0.221343 20.9725 
128 4 -1.52274 3.0915 17.67 
129 9 3.01772 -2.69078 21.3416 
130 5 1.5918 -7.56644 20.5736 
131 3 3.84776 -2.81306 20.7306 
132 3 3.23853 -3.11802 22.2536 
133 3 2.92651 -1.67432 21.5043 
134 8 1.75483 -3.26778 20.7207 
135 2 0.894632 -2.92669 21.3095 
136 2 1.65048 -2.86197 19.705 
137 6 1.53323 -5.50249 21.8684 
138 5 1.45109 -6.89794 21.805 
139 7 1.74709 -4.78069 20.6871 
140 6 1.89845 -5.45386 19.4645 
141 5 1.81828 -6.84942 19.3925 
142 1 1.37962 -4.97291 -2.79142 
143 1 1.26655 -7.46482 -2.88772 
144 1 2.03647 -4.86375 18.5576 
145 1 1.51229 -8.64752 20.5361 
146 1 1.91567 -7.34799 18.432 
147 9 2.20003 2.16138 21.4272 
148 5 2.57574 7.28618 21.6949 
149 3 1.62286 2.14129 22.2901 
150 3 3.17833 2.29301 21.7401 
151 3 2.14379 1.21381 21.0147 
152 8 1.75026 3.24037 20.4538 
153 2 2.25981 3.08079 19.4957 
154 2 0.673301 3.10949 20.2911 
155 6 3.34898 5.15308 20.7899 
156 5 3.59567 6.48361 21.1529 
157 7 2.06184 4.63488 20.9426 
158 6 1.05733 5.42652 21.5099 
159 5 1.29961 6.75338 21.8948 
160 1 4.13484 4.5207 20.3715 
161 1 4.59911 6.88141 21.0372 
162 1 0.0577473 5.01707 21.606 
163 1 2.7864 8.31107 21.9823 
164 1 0.507569 7.35185 22.3335 
165 10 5.28302 -0.259828 -1.2225 
166 4 8.21305 -0.164425 -1.12762 
167 4 5.50868 -3.15396 -1.47295 
168 4 5.2608 -0.1579 1.74324 
169 4 5.0479 2.86158 -1.61429 
170 9 8.92799 -2.36056 1.78441 
171 5 8.655 -7.44769 2.07658 
172 3 9.24285 -2.55524 0.819247 
173 3 9.74433 -2.49433 2.4102 
174 3 8.69276 -1.35567 1.81075 
175 8 7.73516 -3.22381 2.17802 
176 2 7.41473 -2.92661 3.17936 
177 2 6.91311 -3.00476 1.50031 
178 6 8.28596 -5.39005 3.32391 
179 5 8.6102 -6.74922 3.30007 
180 7 8.0404 -4.70443 2.12528 
181 6 8.11266 -5.3879 0.902916 
182 5 8.38507 -6.77236 0.878021 
183 1 8.23622 -4.82598 4.25578 
184 1 8.82705 -7.27299 4.22668 
185 1 7.98053 -4.84217 -0.0281334 
186 1 8.90345 -8.50453 2.05978 
187 1 8.42849 -7.28121 -0.0816371 
188 9 8.54627 2.11363 2.01257 
189 5 8.56788 7.01036 3.28963 
190 3 8.58766 2.21743 3.04379 
191 3 9.51984 2.10843 1.65585 
192 3 8.15073 1.17877 1.81392 
193 8 7.71047 3.22614 1.36623 
194 2 7.9135 3.20059 0.286572 
195 2 6.65377 2.97494 1.50023 
196 6 9.31448 4.94924 2.26131 
197 5 9.60917 6.14237 2.93126 
198 7 7.98999 4.59674 1.96308 
199 6 6.94791 5.47548 2.30822 
200 5 7.24029 6.67416 2.9855 
201 1 10.1276 4.26668 2.01483 
202 1 10.6351 6.34577 3.22934 
203 1 5.91467 5.18076 2.13572 
204 1 8.78683 7.92225 3.83498 
205 1 6.42374 7.31533 3.30469 
206 10 5.24552 -0.0712448 5.03218 
207 4 8.42203 -0.192416 5.04318 
208 4 4.70597 -3.27452 5.18353 
209 4 5.39819 0.0866322 8.17525 
210 4 5.13333 2.86735 4.62831 
211 9 8.5188 -2.40868 8.66073 
212 5 9.9882 -7.34237 8.94083 
213 3 9.55088 -2.29785 8.6768 
214 3 8.22773 -2.49166 9.65559 
215 3 8.11695 -1.51769 8.31781 
216 8 8.0472 -3.60371 7.80603 
217 2 6.95035 -3.64114 7.87418 
218 2 8.29648 -3.37953 6.75941 
219 6 8.862 -5.27158 9.55932 
220 5 9.53389 -6.45132 9.92685 
221 7 8.6499 -4.95823 8.20365 
222 6 9.09934 -5.86213 7.22585 
223 5 9.7462 -7.06258 7.58952 
224 1 8.55374 -4.57452 10.3412 
225 1 9.73966 -6.62826 10.9802 
226 1 9.00882 -5.60531 6.17669 
227 1 10.5452 -8.23042 9.22348 
228 1 10.1191 -7.72834 6.8165 
229 9 9.07354 2.41268 8.50194 
230 5 9.68745 7.35135 8.89997 
231 3 9.31887 2.43118 9.50904 
232 3 9.95566 2.59591 7.98802 
233 3 8.78445 1.44211 8.29708 
234 8 7.99689 3.43941 8.15538 
235 2 7.73814 3.30444 7.09655 
236 2 7.09806 3.19468 8.71683 
237 6 8.93405 5.63223 7.35897 
238 5 9.53768 6.87574 7.58533 
239 7 8.45745 4.86071 8.43257 
240 6 8.55358 5.36536 9.74162 
241 5 9.17824 6.6038 9.97983 
242 1 8.89555 5.21571 6.35221 
243 1 9.9418 7.44281 6.75207 
244 1 8.234 4.74648 10.581 
245 1 10.2008 8.2882 9.09297 
246 1 9.3312 6.93591 11.0044 
247 10 5.33538 -0.0765399 11.3653 
248 4 8.46552 0.0455972 11.6891 
249 4 5.36906 -3.03553 11.1898 
250 4 5.23942 -0.0598701 14.6695 
251 4 5.04854 3.02801 11.2242 
252 9 8.87746 -2.23356 15.0686 
253 5 8.37573 -7.38071 15.3451 
254 3 9.89906 -2.36769 14.9533 
255 3 8.69198 -2.32985 16.084 
256 3 8.67805 -1.24944 14.8135 
257 8 8.06994 -3.21312 14.224 
258 2 7.01418 -2.92938 14.2998 
259 2 8.3475 -3.09207 13.1675 
260 6 7.03945 -5.38202 14.9007 
261 5 7.11913 -6.73646 15.2711 
262 7 8.20752 -4.6661 14.6323 
263 6 9.46446 -5.2961 14.7024 
264 5 9.55138 -6.65472 15.0665 
265 1 6.07688 -4.86894 14.8656 
266 1 6.20602 -7.2723 15.5133 
267 1 10.3552 -4.71223 14.4715 
268 1 8.4288 -8.42591 15.6353 
269 1 10.5276 -7.12554 15.1271 
270 9 8.70777 2.80622 15.3435 
271 5 8.07218 7.83224 14.3485 
272 3 8.31321 3.14471 16.2407 
273 3 9.73252 2.93303 15.3914 
274 3 8.55618 1.78476 15.3297 
275 8 8.10089 3.50193 14.1299 
276 2 8.6132 3.15224 13.2274 
277 2 7.06128 3.16288 14.0448 
278 6 9.33756 5.74104 14.3068 
279 5 9.3028 7.1487 14.3836 
280 7 8.1371 5.01895 14.2197 
281 6 6.91795 5.70325 14.2219 
282 5 6.87531 7.10629 14.2788 
283 1 10.2945 5.21552 14.3096 
284 1 10.2346 7.70142 14.471 
285 1 5.99683 5.12685 14.1607 
286 1 8.05296 8.91652 14.4024 
287 1 5.91715 7.61727 14.2604 
288 10 5.25187 0.316771 17.9708 
289 4 8.44642 0.163184 17.9411 
290 4 5.19551 -3.21333 18.0559 
291 4 5.20936 0.197576 20.8402 
292 4 5.34216 3.27574 17.288 
293 9 8.90539 -2.48978 21.6985 
294 5 9.33356 -7.45729 20.2584 
295 3 9.93307 -2.53958 21.5765 
296 3 8.70596 -2.81817 -2.93701 
297 3 8.64387 -1.48955 21.6901 
298 8 8.15315 -3.29983 20.6378 
299 2 7.08528 -3.23396 20.8784 
300 2 8.29382 -2.8115 19.6651 
301 6 8.86977 -5.5329 21.6737 
302 5 9.25537 -6.87623 21.5372 
303 7 8.57544 -4.75758 20.5283 
304 6 8.6386 -5.34503 19.26 
305 5 9.02329 -6.68521 19.1178 
306 1 8.81597 -5.06951 -2.94162 
307 1 9.52016 -7.45389 -3.18068 
308 1 8.412 -4.73912 18.381 
309 1 9.65446 -8.48724 20.1391 
310 1 9.10677 -7.11102 18.1229 
311 9 8.76008 2.42997 21.3013 
312 5 8.77051 7.28836 22.2575 
313 3 8.37774 2.42391 22.2681 
314 3 9.77068 2.62787 21.4108 
315 3 8.6859 1.46912 20.9275 
316 8 8.07406 3.44753 20.3932 
317 2 8.48509 3.35611 19.3787 
318 2 7.01295 3.17633 20.334 
319 6 9.54505 5.43616 20.9056 
320 5 9.80212 6.65981 21.5457 
321 7 8.26784 4.85799 20.933 
322 6 7.22061 5.52606 21.585 
323 5 7.48393 6.73026 22.2697 
324 1 10.3615 4.91096 20.4155 
325 1 10.8034 7.085 21.5237 
326 1 6.23543 5.06342 21.644 
327 1 8.97575 8.21094 -2.81009 
328 1 6.67941 7.19216 -2.76482 
329 10 11.5701 0.0151537 -1.33335 
330 4 14.6795 -0.0660762 -1.64641 
331 4 11.3192 -3.05017 -1.22365 
332 4 11.861 0.163325 1.74938 
333 4 10.9994 2.85497 -1.35121 
334 9 15.0473 -2.18574 1.99308 
335 5 15.0808 -7.17183 3.35579 
336 3 16.0636 -2.35105 1.87264 
337 3 14.8911 -2.00261 3.0005 
338 3 14.8278 -1.315 1.47259 
339 8 14.2054 -3.35102 1.47469 
340 2 13.1586 -3.09803 1.68281 
341 2 14.3316 -3.38142 0.382833 
342 6 13.493 -5.50347 2.59769 