LAMMPS (3 Mar 2020)
OMP_NUM_THREADS environment is not set. Defaulting to 1 thread. (src/comm.cpp:94)
  using 1 OpenMP thread(s) per MPI task
Reading data file ...
  orthogonal box = (-3.2 -43.7797 -3.2) to (22.4 43.7797 22.4)
  4 by 8 by 4 MPI processor grid
  reading atoms ...
  656 atoms
  scanning bonds ...
  4 = max bonds/atom
  scanning angles ...
  11 = max angles/atom
  scanning dihedrals ...
  21 = max dihedrals/atom
  reading bonds ...
  576 bonds
  reading angles ...
  960 angles
  reading dihedrals ...
  1248 dihedrals
Finding 1-2 1-3 1-4 neighbors ...
  special bond factors lj:   0          0          0.5       
  special bond factors coul: 0          0          0.833333  
  4 = max # of 1-2 neighbors
  7 = max # of 1-3 neighbors
  14 = max # of 1-4 neighbors
  16 = max # of special neighbors
  special bonds CPU = 0.0171634 secs
  read_data CPU = 0.171913 secs
PPPM initialization ...
  using 12-bit tables for long-range coulomb (src/kspace.cpp:332)
  G vector (1/distance) = 0.15861
  grid = 8 18 8
  stencil order = 5
  estimated absolute RMS force accuracy = 0.0216358
  estimated relative force accuracy = 6.51555e-05
  using double precision KISS FFT
  3d grid and FFT values/proc = 392 16
Neighbor list info ...
  update every 1 steps, delay 10 steps, check yes
  max neighbors/atom: 10000, page size: 100000
  master list distance cutoff = 17
  ghost atom cutoff = 17
  binsize = 8.5, bins = 4 11 4
  3 neighbor lists, perpetual/occasional/extra = 3 0 0
  (1) pair buck/coul/long, perpetual, skip from (3)
      attributes: half, newton off
      pair build: skip
      stencil: none
      bin: none
  (2) pair lj/cut/coul/long, perpetual, skip from (3)
      attributes: half, newton off
      pair build: skip
      stencil: none
      bin: none
  (3) neighbor class addition, perpetual
      attributes: half, newton off
      pair build: half/bin/newtoff
      stencil: half/bin/3d/newtoff
      bin: standard
Setting up Verlet run ...
  Unit style    : real
  Current step  : 0
  Time step     : 1
Per MPI rank memory allocation (min/avg/max) = 19.58 | 19.73 | 20.1 Mbytes
Step Temp Volume Density TotEng PotEng E_bond E_angle E_dihed E_coul E_long E_vdwl Enthalpy Press 
       0     298.000000   57382.899195       0.431122   -8970.011871   -9551.836184      18.560582      22.998292       4.401131   -5716.601650   -4576.398885     695.204344   -3629.225159    6381.853911 
    1000      89.282123   57382.899195       0.431122  -10855.015851  -11029.332999      10.794217      25.216117      18.805188   -6013.974389   -4643.141251    -427.032880  -11882.857436   -1228.196367 
    2000      66.716528   57382.899195       0.431122  -10962.158601  -11092.417991       9.170617      30.988585      23.755179   -6065.457066   -4645.164959    -445.710346  -11459.734598    -594.567335 
    3000      57.942203   57382.899195       0.431122  -11012.727250  -11125.855379      10.289753      30.280542      22.964050   -6093.466487   -4646.349420    -449.573817  -11524.057121    -611.002220 
    4000      51.565267   57382.899195       0.431122  -11041.392197  -11142.069803       9.450697      29.380073      18.660482   -6068.886894   -4645.636183    -485.037977  -11582.901138    -647.064026 
    5000      47.081475   57382.899195       0.431122  -11059.247959  -11151.171270       8.869060      27.146349      14.268264   -6100.542413   -4643.869078    -457.043453  -11549.979905    -586.389189 
    6000      46.863834   57382.899195       0.431122  -11070.758867  -11162.257250       7.809134      27.290671      18.134394   -6092.617118   -4645.794444    -477.079887  -11391.687720    -383.486773 
    7000      42.999908   57382.899195       0.431122  -11078.311530  -11162.265866       7.751759      26.595210      17.446497   -6069.334364   -4645.664971    -499.059998  -11577.681122    -596.710552 
    8000      39.199148   57382.899195       0.431122  -11084.856614  -11161.390229       7.500216      26.507327      16.552151   -6086.960362   -4644.575445    -480.414117  -11576.507874    -587.487702 
    9000      37.417910   57382.899195       0.431122  -11090.096232  -11163.152105       7.552210      25.634332      17.606263   -6094.988525   -4645.462862    -473.493524  -11474.958417    -459.882480 
   10000      38.826204   57382.899195       0.431122  -11095.424414  -11171.229883       8.538696      27.726169      16.795842   -6085.285395   -4645.809200    -493.195995  -11587.066753    -587.477042 
Loop time of 10.5835 on 128 procs for 10000 steps with 656 atoms

Performance: 81.636 ns/day, 0.294 hours/ns, 944.865 timesteps/s
99.8% CPU use with 128 MPI tasks x 1 OpenMP threads

MPI task timing breakdown:
Section |  min time  |  avg time  |  max time  |%varavg| %total
---------------------------------------------------------------
Pair    | 0.0025789  | 1.0278     | 4.4205     | 175.3 |  9.71
Bond    | 0.0012261  | 0.06276    | 0.26798    |  42.5 |  0.59
Kspace  | 3.5329     | 7.5802     | 9.3832     |  77.1 | 71.62
Neigh   | 0.033593   | 0.045126   | 0.058175   |   4.1 |  0.43
Comm    | 0.0041369  | 0.71709    | 1.2689     |  53.3 |  6.78
Output  | 0.0085242  | 0.0085396  | 0.0085658  |   0.0 |  0.08
Modify  | 1.0195     | 1.0362     | 1.051      |   0.7 |  9.79
Other   |            | 0.1058     |            |       |  1.00

Nlocal:    5.125 ave 23 max 0 min
Histogram: 96 0 0 0 0 0 0 2 14 16
Nghost:    908.594 ave 1766 max 0 min
Histogram: 32 10 22 0 0 0 0 0 32 32
Neighs:    451.523 ave 2859 max 0 min
Histogram: 96 0 0 0 10 7 1 5 7 2

Total # of neighbors = 57795
Ave neighs/atom = 88.1021
Ave special neighs/atom = 8.19512
Neighbor list builds = 74
Dangerous builds = 0
PPPM initialization ...
  using 12-bit tables for long-range coulomb (src/kspace.cpp:332)
  G vector (1/distance) = 0.15861
  grid = 8 18 8
  stencil order = 5
  estimated absolute RMS force accuracy = 0.0216358
  estimated relative force accuracy = 6.51555e-05
  using double precision KISS FFT
  3d grid and FFT values/proc = 392 16
Neighbor list info ...
  update every 1 steps, delay 10 steps, check yes
  max neighbors/atom: 10000, page size: 100000
  master list distance cutoff = 17
  ghost atom cutoff = 17
  binsize = 8.5, bins = 4 11 4
  3 neighbor lists, perpetual/occasional/extra = 3 0 0
  (1) pair buck/coul/long, perpetual, skip from (3)
      attributes: half, newton off
      pair build: skip
      stencil: none
      bin: none
  (2) pair lj/cut/coul/long, perpetual, skip from (3)
      attributes: half, newton off
      pair build: skip
      stencil: none
      bin: none
  (3) neighbor class addition, perpetual
      attributes: half, newton off
      pair build: half/bin/newtoff
      stencil: half/bin/3d/newtoff
      bin: standard
Setting up Verlet run ...
  Unit style    : real
  Current step  : 10000
  Time step     : 1
Per MPI rank memory allocation (min/avg/max) = 19.58 | 19.73 | 20.1 Mbytes
Step Temp Volume Density TotEng PotEng E_bond E_angle E_dihed E_coul E_long E_vdwl Enthalpy Press 
   10000      38.826204   57382.899195       0.431122  -11095.424414  -11171.229883       8.538696      27.726169      16.795842   -6085.285395   -4645.809200    -493.195995  -11587.066753    -587.477042 
   11000      97.542704   56395.279235       0.438672  -10827.783019  -11018.228377      13.788973      40.019151      38.492557   -6138.631159   -4642.167270    -329.730629  -11062.025068    -284.804087 
   12000     272.247802   59597.896253       0.415099  -10063.302654  -10594.847590      40.351937      90.036554      92.078540   -5942.762983   -4637.401514    -237.150124  -10521.917430    -527.644266 
   13000     318.078117   56326.923723       0.439205  -10019.044195  -10640.069638      58.158466     109.410510      94.705171   -6052.543444   -4638.771940    -211.028402   -9819.995462     242.307857 
   14000     306.314826   55737.933201       0.443846  -10041.473853  -10639.532286      75.247091     113.875121      92.195620   -6055.378599   -4636.274990    -229.196529   -9602.630894     539.861534 
   15000     297.783005   55980.817441       0.441920  -10047.194670  -10628.595316      89.504453     137.912676      96.329450   -6085.596341   -4633.612369    -233.133185  -10319.249493    -333.227860 
   16000     326.118518   56138.910586       0.440676  -10010.447694  -10647.171461      96.373402     135.081630     117.942804   -6098.944398   -4638.150547    -259.474352  -10320.880282    -379.164297 
   17000     296.287598   55889.087675       0.442645  -10072.215629  -10650.696596     108.666946     165.033935      94.478554   -6055.218620   -4638.139888    -325.517523  -10429.483788    -438.320116 
   18000     295.675098   54888.264988       0.450717  -10050.838203  -10628.123307     103.113957     175.341395      92.709678   -6103.684765   -4636.219912    -259.383658   -9823.664720     283.793370 
   19000     300.817335   55071.590246       0.449216  -10045.809979  -10633.134944     116.840597     152.420296     109.143837   -6143.365741   -4638.333597    -229.840336   -9797.827674     308.757265 
   20000     283.959579   55312.813087       0.447257  -10047.910483  -10602.321850     135.096374     175.661757     100.329011   -6068.218523   -4639.715211    -305.475259  -10148.270204    -124.410721 
   21000     280.382698   54784.145477       0.451573  -10099.774966  -10647.202721     143.941365     151.267849     107.921579   -6116.891595   -4636.656872    -296.785047  -10624.136212    -656.296073 
   22000     296.121702   54446.186063       0.454376  -10052.079503  -10630.236571     142.424908     185.721635     107.332394   -6150.517088   -4637.396546    -277.801875   -9963.011561     112.170348 
   23000     305.395811   54148.193054       0.456877  -10048.880256  -10645.144376     145.017163     180.250996     105.834883   -6162.704689   -4638.130017    -275.412712  -10014.857650      43.083176 
   24000     296.138098   54232.407764       0.456167  -10072.608850  -10650.797930     151.469459     176.445206     102.879195   -6167.704739   -4639.618859    -274.268192  -10061.878749      13.566539 
   25000     272.731341   54444.434479       0.454391  -10102.627953  -10635.116965     147.535259     185.638550      96.446043   -6175.147727   -4637.660271    -251.928819   -9978.683051     156.098701 
   26000     300.572373   55031.960504       0.449540  -10036.599831  -10623.446525     157.068263     181.189742     114.593963   -6099.537353   -4639.975540    -336.785600  -10247.532215    -262.816354 
   27000     297.880127   54666.839715       0.452542  -10045.433913  -10627.024182     154.886505     183.673618     110.111557   -6148.332454   -4637.598978    -289.764429  -10079.280253     -42.453340 
   28000     293.900157   54150.095849       0.456861  -10078.822920  -10652.642574     157.814620     185.130841     111.284961   -6175.511855   -4636.756242    -294.604898  -10378.534736    -379.514825 
   29000     304.548314   54503.337002       0.453900  -10021.298396  -10615.907839     166.596081     195.535044     113.930782   -6189.579574   -4637.002099    -265.388072   -9977.306162      55.344827 
   30000     292.998953   54021.477823       0.457948  -10093.710048  -10665.770164     152.618596     188.311283      99.148606   -6134.004303   -4639.313793    -332.530554  -10320.466515    -287.817589 
   31000     281.707783   54131.011596       0.457022  -10083.765586  -10633.780478     148.379413     201.424855     111.370157   -6151.911908   -4639.381073    -303.661921  -10109.846821     -33.037420 
   32000     297.298157   54332.960549       0.455323  -10060.920014  -10641.374029     176.164670     178.552066     107.888206   -6141.595031   -4634.149169    -328.234771  -10717.919433    -829.135912 
   33000     294.723830   53358.725586       0.463636  -10075.278830  -10650.706648     174.811806     187.157902     103.285642   -6218.582736   -4637.196754    -260.182509   -9707.163034     473.045717 
   34000     290.531607   53809.754131       0.459750  -10096.001917  -10663.244713     172.424290     185.419263      97.622847   -6158.444934   -4637.931114    -322.335065  -10406.370549    -395.494935 
   35000     308.350340   53190.157954       0.465106  -10053.914813  -10655.947448     170.016436     194.246326     110.448323   -6189.524676   -4637.498378    -303.635479   -9968.391768     110.249337 
   36000     293.638949   53794.967914       0.459877  -10108.155741  -10681.465405     173.848864     179.917343      88.208050   -6182.145853   -4638.380256    -302.913553   -9979.448912     164.052951 
   37000     309.614554   53950.003433       0.458555  -10049.198052  -10653.698975     162.561259     183.440539     100.196331   -6178.869718   -4638.230234    -282.797153   -9827.863050     281.308421 
   38000     295.346580   54289.542456       0.455687  -10100.189340  -10676.833035     165.746744     189.799771      95.143650   -6154.553648   -4639.089414    -333.880138   -9996.551791     130.895604 
   39000     305.415497   53512.373161       0.462305  -10054.212265  -10650.514821     183.346879     180.367912     107.970407   -6193.594830   -4638.279547    -290.325642  -10040.735119      17.269025 
   40000     284.115189   53678.660621       0.460873  -10113.358134  -10668.073318     163.311846     193.140655     104.752797   -6182.462599   -4637.100721    -309.715296   -9911.607454     257.713665 
   41000     284.830343   53896.246419       0.459013  -10091.965552  -10648.077025     167.905025     199.078325     108.491315   -6200.159729   -4637.943188    -285.448773  -10340.809548    -316.586766 
   42000     310.860699   53528.674838       0.462164  -10048.181392  -10655.115327     167.108664     192.405918     106.961913   -6163.067565   -4635.745983    -322.778273  -10122.685463     -95.437185 
   43000     292.920510   53483.660755       0.462553  -10077.676682  -10649.583644     175.258404     196.854993     102.469022   -6209.956447   -4635.977878    -278.231737  -10000.427405      99.036984 
   44000     285.384861   54143.598879       0.456916  -10106.953923  -10664.148054     165.142080     190.027125     115.573551   -6132.790110   -4638.685164    -363.415537  -10200.905065    -118.981394 
   45000     282.984141   52977.017390       0.466977  -10126.584500  -10679.091390     191.900767     177.491103     108.482407   -6244.131037   -4637.534623    -275.300009   -9929.666040     254.872533 
   46000     298.162104   53511.518949       0.462313  -10084.806452  -10666.947262     182.618448     186.580127      96.847194   -6212.652945   -4638.763447    -281.576639  -10075.266827      12.223854 
   47000     288.819672   53206.771213       0.464961  -10089.046772  -10652.947132     194.816730     197.071267     103.851366   -6228.437411   -4636.153053    -284.096030  -10116.928314     -35.931389 
   48000     287.669699   53456.486952       0.462789  -10080.522867  -10642.177985     188.886539     195.162273      98.750089   -6190.117006   -4635.519427    -299.340454  -10257.220558    -226.649399 
   49000     318.480675   53871.787293       0.459221  -10042.158042  -10663.969453     182.573873     183.414030      98.661553   -6170.450534   -4637.547055    -320.621320  -10103.403068     -77.953128 
   50000     288.662790   53717.944527       0.460536  -10083.254984  -10646.849043     193.709692     196.505692     104.409780   -6220.291906   -4637.621560    -283.560740   -9698.759708     490.790031 
   51000     303.284245   53308.363012       0.464074  -10054.119782  -10646.261218     196.022104     192.551683      97.299604   -6177.155115   -4638.061766    -316.917727  -10193.848860    -179.727924 
   52000     287.327106   53274.386402       0.464370  -10110.948926  -10671.935155     188.093137     187.819820     106.163353   -6206.225823   -4637.289195    -310.496447   -9989.509574     156.302202 
   53000     291.577790   53476.564757       0.462615  -10108.142746  -10677.428141     176.846595     187.485452      98.528899   -6233.737101   -4637.642922    -268.909064  -10182.110861     -94.842974 
   54000     299.892539   53836.412124       0.459523  -10069.798227  -10655.317592     186.019721     185.905875      92.202672   -6126.854096   -4640.105140    -352.486624  -10218.522525    -189.421786 
   55000     273.025797   53466.908488       0.462698  -10116.969117  -10650.033033     164.033243     201.763672     100.743916   -6180.394184   -4635.282319    -300.897360   -9818.727776     382.478371 
   56000     303.151157   53245.117444       0.464626  -10098.891954  -10690.773544     171.579290     188.056415      81.683325   -6240.776634   -4634.558242    -256.757698   -9782.796624     407.063723 
   57000     298.980598   53428.532736       0.463031  -10084.183049  -10667.921913     182.663947     176.307342     108.783382   -6210.986871   -4637.976277    -286.713435  -10224.587474    -180.190404 
   58000     297.069584   53874.367425       0.459199  -10086.641640  -10666.649381     197.242486     193.973553      90.313412   -6182.229125   -4637.636353    -328.313355  -10299.773527    -271.262872 
   59000     301.519739   53856.331996       0.459353  -10113.737656  -10702.434016     160.414627     192.532857      86.371502   -6199.952532   -4638.753767    -303.046703   -9837.556927     351.625781 
   60000     303.093315   53290.110865       0.464233  -10074.055564  -10665.824222     177.305609     216.106847      95.406495   -6243.440722   -4637.182988    -274.019463  -10175.510484    -130.542101 
   61000     289.861617   53243.916106       0.464636  -10118.470097  -10684.404783     162.786398     192.395972      97.638993   -6221.996961   -4636.995370    -278.233814  -10166.076238     -61.307994 
   62000     308.423504   52927.659871       0.467413  -10072.872233  -10675.047714     170.888504     188.411258      98.546598   -6208.872899   -4636.048448    -287.972728   -9717.239224     460.726807 
   63000     287.792478   53410.526973       0.463187  -10095.908237  -10657.803073     182.157809     204.947907      96.073114   -6174.268713   -4637.460399    -329.252790  -10154.581367     -75.324543 
   64000     312.150565   53937.839205       0.458659  -10044.133151  -10653.585460     196.062021     202.449418      80.431337   -6161.760409   -4636.338882    -334.428946  -10623.654816    -736.716239 
   65000     285.108155   53386.058045       0.463399  -10104.541832  -10661.195713     194.561688     201.524074      91.581446   -6233.119624   -4637.566947    -278.176351   -9661.633822     568.865756 
   66000     303.821675   53557.491161       0.461916  -10067.638588  -10660.829318     178.590621     198.794851      99.325687   -6167.130526   -4638.415300    -331.994653  -10157.988619    -115.673051 
   67000     307.688139   53759.583668       0.460179  -10056.539467  -10657.279199     178.112106     205.677750      96.634867   -6174.556829   -4638.706101    -324.440992  -10453.167267    -505.884491 
   68000     289.379816   52870.667160       0.467916  -10092.916788  -10657.910790     173.371401     202.326136      94.953679   -6221.374918   -4637.063901    -270.123187   -9762.601406     428.388810 
   69000     299.907731   54115.115614       0.457156  -10040.214494  -10625.763520     195.291452     196.149245     109.894021   -6203.232581   -4637.649446    -286.216210  -10185.547879    -184.149655 
   70000     306.524227   53300.699422       0.464141  -10047.514187  -10645.981463     185.360463     195.534041      98.931301   -6218.410276   -4638.691999    -268.704994   -9848.063986     256.581701 
   71000     304.515503   53486.097521       0.462532  -10106.647488  -10701.192870     159.410453     195.528696     103.036677   -6192.348692   -4639.268083    -327.551922  -10314.556493    -266.536382 
   72000     312.823774   53447.429146       0.462867  -10067.637285  -10678.403988     156.977963     200.654190      97.056492   -6210.698745   -4636.925311    -285.468576   -9980.920993     111.249480 
   73000     289.720517   52792.331279       0.468611  -10094.892872  -10660.552070     164.259403     216.922597     102.779505   -6225.399254   -4636.921594    -282.192728   -9773.044159     418.027687 
   74000     304.621336   53155.086113       0.465413  -10054.428164  -10649.180176     164.921823     210.796190     106.331304   -6190.886431   -4637.582049    -302.761012   -9727.145374     422.184663 
   75000     292.450230   53238.240165       0.464686  -10140.706024  -10711.694797     170.504989     171.444665      95.080330   -6190.848848   -4637.434910    -320.441022  -10493.715035    -454.659438 
   76000     298.130616   53823.201730       0.459635  -10071.886814  -10653.966147     185.989266     193.005750     103.494478   -6137.643209   -4639.180582    -359.631850  -10315.577215    -310.450958 
   77000     287.714513   53205.349139       0.464973  -10136.992912  -10698.735527     171.947865     187.373096     106.697190   -6248.026733   -4638.942969    -277.783976   -9785.784120     452.620471 
   78000     289.928479   53983.741895       0.458269  -10085.883112  -10651.948342     190.851903     208.100881      95.527665   -6171.587839   -4640.119090    -334.721862  -10466.768113    -483.787894 
   79000     313.583722   53726.561076       0.460462  -10009.161347  -10621.411796     201.162631     204.921710     112.066820   -6173.444173   -4639.946507    -326.172277   -9827.743996     231.533527 
   80000     291.707495   53488.342548       0.462513  -10090.213637  -10659.752271     190.635453     183.539295      99.368085   -6198.331680   -4638.863940    -296.099485   -9872.914881     278.562217 
   81000     289.995731   53709.373780       0.460610  -10121.602103  -10687.798638     175.027764     173.785204      94.063115   -6156.470601   -4637.075149    -337.128971  -10114.127187       9.542899 
   82000     299.195405   53587.034418       0.461661  -10072.492346  -10656.650605     164.677742     196.984513     113.963172   -6225.858714   -4635.725529    -270.691789   -9873.150161     255.072477 
   83000     299.026226   53401.818666       0.463262  -10068.008839  -10651.836788     190.287358     184.245469     108.761773   -6187.747044   -4636.892811    -310.491533   -9953.851115     146.579543 
   84000     301.775356   53630.096873       0.461290  -10091.277830  -10680.473263     190.160172     189.022966      90.507646   -6198.164830   -4637.176990    -314.822227  -10307.471250    -276.412705 
   85000     302.895642   53664.329861       0.460996  -10046.700030  -10638.082745     170.326260     211.014549     110.299919   -6173.184446   -4638.780607    -317.758419  -10093.673421     -60.019216 
   86000     282.843186   53117.733086       0.465740  -10083.103459  -10635.335145     201.395978     211.896501     100.746173   -6234.974890   -4636.788623    -277.610283   -9682.756956     516.797753 
   87000     307.862764   53386.226425       0.463398  -10044.857519  -10645.938194     190.554247     205.552894     102.147493   -6168.653168   -4637.050611    -338.489050  -10339.170227    -378.010532 
   88000     302.769720   53022.628996       0.466575  -10072.254401  -10663.391261     180.103618     198.320645     103.550086   -6240.488577   -4637.314576    -267.562457   -9687.772719     497.208457 
   89000     292.716182   53459.007945       0.462767  -10113.439910  -10684.947936     173.788915     182.967316     101.996644   -6184.395381   -4637.275529    -322.029901  -10020.527306     119.172994 
   90000     312.085543   53454.346217       0.462807  -10075.231631  -10684.556989     180.148906     182.606330     112.413143   -6237.874575   -4636.566272    -285.284522   -9905.129185     218.198443 
   91000     311.975296   53457.705674       0.462778  -10021.685930  -10630.796039     192.251952     198.300687     112.102991   -6196.684828   -4637.864546    -298.902294  -10171.410064    -192.046149 
   92000     296.153153   52900.483049       0.467653  -10096.257903  -10674.476376     174.607490     202.177337      94.481295   -6231.768514   -4637.552591    -276.421393   -9507.106145     763.645243 
   93000     292.819130   53614.399284       0.461426  -10126.228115  -10697.937140     170.777800     166.611953     102.707595   -6181.953886   -4637.196885    -318.883718  -10163.399768     -47.539492 
   94000     299.819208   53090.000370       0.465983  -10062.495130  -10647.871321     197.176324     207.110192      94.613347   -6224.028545   -4637.085487    -285.657153   -9923.901449     179.000734 
   95000     294.287553   53241.547177       0.464657  -10134.089123  -10708.665142     174.714097     182.075815      97.654293   -6209.499664   -4637.342097    -316.267586  -10430.686756    -381.980439 
   96000     273.637909   53339.669478       0.463802  -10075.809072  -10610.068095     192.273948     217.592848     109.814180   -6182.003669   -4638.087985    -309.657416   -9971.309386     134.334875 
   97000     318.226632   53489.799130       0.462500  -10040.292579  -10661.607989     173.496767     203.190321     114.466099   -6211.499058   -4638.864024    -302.398094   -9521.378918     665.193885 
   98000     308.073908   53385.091326       0.463407  -10085.365778  -10686.858698     191.694814     179.574254      84.688583   -6152.162315   -4638.927003    -351.727032  -10366.933805    -361.649158 
   99000     301.205653   53919.526168       0.458814  -10074.944740  -10663.027870     198.567965     195.081733      93.314690   -6213.045942   -4636.039287    -300.907029  -10258.502235    -233.426503 
  100000     296.605129   53778.765592       0.460015  -10079.694480  -10658.795405     178.845068     193.341125     103.738122   -6177.713751   -4639.840369    -317.165600   -9915.233728     209.688954 
  101000     286.732739   54007.937008       0.458063  -10112.162735  -10671.988503     190.524740     188.757557      98.297212   -6168.565825   -4637.948088    -343.054098  -10347.191860    -298.392708 
  102000     281.916251   53536.617627       0.462096  -10073.938825  -10624.360735     195.951993     212.079872     105.420825   -6190.288236   -4636.778143    -310.747047  -10056.617460      22.184789 
  103000     300.088673   53334.519931       0.463847  -10075.213992  -10661.116294     181.124844     188.375868      87.649723   -6161.330295   -4637.338415    -319.598019  -10147.328601     -92.712646 
  104000     281.603659   52987.430924       0.466885  -10113.365421  -10663.177017     182.463502     190.567646     104.479954   -6251.444509   -4639.043617    -250.199993   -9848.691508     342.501426 
  105000     287.801286   53710.640727       0.460599  -10074.693764  -10636.605798     197.881340     184.066191     105.215672   -6193.835926   -4636.233249    -293.699825  -10673.540348    -764.503282 
  106000     310.639322   53248.517838       0.464596  -10076.522899  -10683.024611     172.975842     194.516692      93.598628   -6235.154382   -4637.593455    -271.367938   -9936.374157     180.470321 
  107000     302.110171   53328.793746       0.463897  -10129.340369  -10719.189507     161.990019     190.676785      93.875568   -6187.951334   -4638.962092    -338.818452  -10420.968601    -374.966022 
  108000     308.977587   53217.382924       0.464868  -10035.319542  -10638.576832     208.522807     190.762244      98.509251   -6213.058900   -4636.248284    -287.063950   -9999.379955      46.306683 
  109000     298.684569   53115.832923       0.465757  -10100.093014  -10683.253902     181.832122     187.427632     103.660707   -6220.122419   -4636.812093    -299.239851  -10341.121371    -311.148889 
  110000     303.140143   52798.643679       0.468555  -10084.287500  -10676.147587     184.104150     186.102863     100.904301   -6218.105119   -4636.467138    -292.686643  -10156.519556     -93.806152 
Loop time of 113.277 on 128 procs for 100000 steps with 656 atoms

Performance: 76.273 ns/day, 0.315 hours/ns, 882.794 timesteps/s
99.9% CPU use with 128 MPI tasks x 1 OpenMP threads

MPI task timing breakdown:
Section |  min time  |  avg time  |  max time  |%varavg| %total
---------------------------------------------------------------
Pair    | 0.025509   | 11.012     | 49.033     | 575.0 |  9.72
Bond    | 0.012145   | 0.82008    | 3.59       | 154.4 |  0.72
Kspace  | 34.086     | 78.997     | 97.568     | 255.1 | 69.74
Neigh   | 1.3939     | 1.7059     | 2.1255     |  20.7 |  1.51
Comm    | 0.082062   | 7.2112     | 12.192     | 166.2 |  6.37
Output  | 0.093057   | 0.093157   | 0.094279   |   0.0 |  0.08
Modify  | 12.554     | 12.693     | 12.911     |   1.7 | 11.21
Other   |            | 0.7437     |            |       |  0.66

Nlocal:    5.125 ave 28 max 0 min
Histogram: 96 0 0 0 0 5 6 12 8 1
Nghost:    860.383 ave 1649 max 0 min
Histogram: 32 0 32 0 0 0 0 0 32 32
Neighs:    488.344 ave 2862 max 0 min
Histogram: 96 0 0 2 6 2 6 7 3 6

Total # of neighbors = 62508
Ave neighs/atom = 95.2866
Ave special neighs/atom = 8.19512
Neighbor list builds = 2347
Dangerous builds = 0
PPPM initialization ...
  using 12-bit tables for long-range coulomb (src/kspace.cpp:332)
  G vector (1/distance) = 0.159158
  grid = 8 18 8
  stencil order = 5
  estimated absolute RMS force accuracy = 0.02169
  estimated relative force accuracy = 6.53188e-05
  using double precision KISS FFT
  3d grid and FFT values/proc = 392 16
Neighbor list info ...
  update every 1 steps, delay 10 steps, check yes
  max neighbors/atom: 10000, page size: 100000
  master list distance cutoff = 17
  ghost atom cutoff = 17
  binsize = 8.5, bins = 3 11 3
  3 neighbor lists, perpetual/occasional/extra = 3 0 0
  (1) pair buck/coul/long, perpetual, skip from (3)
      attributes: half, newton off
      pair build: skip
      stencil: none
      bin: none
  (2) pair lj/cut/coul/long, perpetual, skip from (3)
      attributes: half, newton off
      pair build: skip
      stencil: none
      bin: none
  (3) neighbor class addition, perpetual
      attributes: half, newton off
      pair build: half/bin/newtoff
      stencil: half/bin/3d/newtoff
      bin: standard
Setting up Verlet run ...
  Unit style    : real
  Current step  : 110000
  Time step     : 1
Per MPI rank memory allocation (min/avg/max) = 19.58 | 19.73 | 20.1 Mbytes
Step Temp Volume Density TotEng PotEng E_bond E_angle E_dihed E_coul E_long E_vdwl Enthalpy Press 
  110000     303.140143   52798.643679       0.468555  -10084.321704  -10676.181791     184.104150     186.102863     100.904301   -6202.265269   -4652.341192    -292.686643  -10156.713729     -94.013901 
  111000     299.673475   52798.643679       0.468555  -10124.601317  -10709.692974     162.984627     166.932198     103.209683   -6213.372081   -4651.262675    -278.184727   -9950.345157     226.302569 
  112000     285.912024   52798.643679       0.468555  -10113.844777  -10672.068157     177.114088     185.901233     101.825116   -6237.140499   -4652.460147    -247.307948   -9666.420523     581.059849 
  113000     292.637810   52798.643679       0.468555  -10099.144015  -10670.499026     196.343652     188.145437     102.818160   -6214.757721   -4652.100772    -290.947781  -10439.448454    -441.945746 
  114000     298.860098   52798.643679       0.468555  -10120.596830  -10704.100424     177.442578     195.099032      92.884645   -6208.205582   -4653.314105    -308.006992  -10197.883556    -100.370539 
  115000     299.169333   52798.643679       0.468555  -10085.767902  -10669.875257     176.503876     194.408293      95.581630   -6223.386149   -4651.185879    -261.797028   -9783.766626     392.202288 
  116000     287.638206   52798.643679       0.468555  -10082.313943  -10643.907574     182.384162     197.618517      93.852467   -6180.442483   -4652.622969    -284.697268   -9555.089046     684.695155 
  117000     286.963344   52798.643679       0.468555  -10111.053786  -10671.329794     178.464368     195.260146      96.839655   -6209.380920   -4650.494873    -282.018169  -10394.734196    -368.409389 
  118000     299.979890   52798.643679       0.468555  -10135.153665  -10720.843576     146.358363     177.570289      90.655868   -6170.925381   -4653.502004    -311.000712   -9602.648223     691.552881 
  119000     287.615412   52798.643679       0.468555  -10115.363896  -10676.913023     178.579683     189.823380     106.899046   -6200.195566   -4652.522848    -299.496717  -10151.990651     -47.566346 
  120000     292.973559   52798.643679       0.468555  -10089.201907  -10661.212444     191.451107     202.029397     101.255918   -6237.668621   -4651.500855    -266.779391  -10204.765415    -150.079737 
  121000     287.297739   52798.643679       0.468555  -10122.629265  -10683.558157     183.599259     186.397003      92.966714   -6243.897897   -4649.464774    -253.158462  -10195.746317     -94.955477 
  122000     284.160719   52798.643679       0.468555  -10098.845485  -10653.649564     170.866990     217.303814     100.623456   -6216.558297   -4653.166155    -272.719372   -9639.553785     596.471835 
  123000     283.857456   52798.643679       0.468555  -10123.496375  -10677.708354     178.485838     190.862984      93.516979   -6172.338361   -4654.816860    -313.418934  -10059.612303      82.964812 
  124000     312.009640   52798.643679       0.468555  -10067.041731  -10676.218894     168.868301     177.384977     100.787111   -6182.960301   -4650.684207    -289.614775  -10134.066615     -87.043715 
  125000     286.562774   52798.643679       0.468555  -10156.449949  -10715.943873     156.341418     183.754618      93.776087   -6227.513369   -4652.549830    -269.752798   -9926.746567     298.310633 
  126000     304.142683   52798.643679       0.468555  -10073.552990  -10667.370466     174.848453     208.710713      88.601235   -6206.658593   -4651.126317    -281.745957   -9728.431036     448.202145 
  127000     295.439818   52798.643679       0.468555  -10078.142232  -10654.967968     192.181802     186.484503      98.361625   -6179.670775   -4652.898309    -299.426814  -10292.560430    -278.460107 
  128000     294.842070   52798.643679       0.468555  -10115.175211  -10690.833886     172.116405     179.897297      97.346417   -6195.866043   -4654.440777    -289.887186  -10023.676222     118.827687 
  129000     287.688812   52798.643679       0.468555  -10130.858952  -10692.551387     165.651173     193.202224      98.933615   -6214.372992   -4653.093921    -282.871485  -10002.714116     166.418827 
  130000     304.914045   52798.643679       0.468555  -10089.661227  -10684.984733     178.320131     188.864026     104.873368   -6203.422299   -4652.619514    -301.000445  -10187.107221    -126.550927 
  131000     285.347514   52798.643679       0.468555  -10121.389498  -10678.510711     192.459080     200.828439      93.877337   -6223.427512   -4649.975388    -292.272667  -10642.187603    -676.348825 
  132000     297.950561   52798.643679       0.468555  -10088.395074  -10670.122862     188.996555     200.946778      89.141839   -6198.704686   -4651.335175    -299.168173  -10178.440096    -116.939452 
  133000     294.676156   52798.643679       0.468555  -10109.129674  -10684.464413     176.649615     182.017324      90.118641   -6227.820492   -4651.213959    -254.215543   -9857.083431     327.326806 
  134000     274.023621   52798.643679       0.468555  -10124.330485  -10659.342582     208.271871     187.864012      95.749529   -6233.931157   -4650.729578    -266.567259   -9987.323274     177.928193 
  135000     296.397141   52798.643679       0.468555  -10068.687826  -10647.382669     188.272877     196.782860     101.061402   -6222.968571   -4651.878609    -258.652627  -10073.635196      -6.425038 
  136000     290.487609   52798.643679       0.468555  -10130.104926  -10697.261817     188.564852     177.997316      93.806534   -6168.167246   -4654.485409    -334.977865  -10340.868590    -273.714047 
  137000     298.792596   52798.643679       0.468555  -10072.932296  -10656.304097     191.156953     191.565397      99.155858   -6208.706292   -4652.601518    -276.874496  -10060.225719      16.501747 
  138000     303.738780   52798.643679       0.468555  -10105.836074  -10698.864958     169.780267     188.585268      87.902540   -6176.100143   -4652.955027    -316.077863  -10117.720732     -15.434339 
  139000     279.053245   52798.643679       0.468555  -10102.289088  -10647.121176     182.155780     217.306650     103.719700   -6197.070123   -4652.487636    -300.745548  -10165.252722     -81.769461 
  140000     288.308973   52798.643679       0.468555  -10115.514221  -10678.417478     185.162316     189.596935     102.720432   -6265.229365   -4649.019679    -241.648117  -10403.813416    -374.407702 
  141000     302.095717   52798.643679       0.468555  -10084.580359  -10674.401276     186.841161     190.967125      95.257248   -6200.197080   -4652.756408    -294.513322  -10112.956967     -36.852064 
  142000     297.993436   52798.643679       0.468555  -10063.585915  -10645.397412     202.321115     196.741160      98.870068   -6223.194992   -4651.723728    -268.411035  -10140.498038     -99.884050 
  143000     293.377925   52798.643679       0.468555  -10082.470366  -10655.270399     176.999024     201.970209     109.150988   -6210.052130   -4653.010746    -280.327744  -10165.657257    -108.032950 
  144000     315.188918   52798.643679       0.468555  -10034.562093  -10649.946577     188.696050     215.126278      89.751908   -6232.832925   -4648.729353    -261.958534  -10068.433651     -43.988233 
  145000     308.539487   52798.643679       0.468555  -10058.195837  -10660.597766     194.636024     199.841578      99.608177   -6220.128316   -4651.818366    -282.736864  -10683.821018    -812.485399 
  146000     296.013650   52798.643679       0.468555  -10088.570845  -10666.516949     187.390830     192.921189      97.844412   -6223.226056   -4651.764251    -269.683074   -9994.421974     122.269028 
  147000     310.344955   52798.643679       0.468555  -10059.760935  -10665.687917     185.810436     207.206751      94.365342   -6210.773848   -4654.178964    -288.117634   -9890.349253     220.011154 
  148000     282.806814   52798.643679       0.468555  -10141.156836  -10693.317510     183.373146     183.952623      78.539377   -6197.697441   -4651.302090    -290.183124  -10086.042129      71.576235 
  149000     288.822728   52798.643679       0.468555  -10090.633757  -10654.540084     184.887472     205.286741     101.625853   -6184.828691   -4654.709957    -306.801502   -9702.919454     503.515874 
  150000     295.762158   52798.643679       0.468555  -10059.594801  -10637.049883     187.291502     208.197460      89.529552   -6159.924594   -4652.983428    -309.160375  -10013.238945      60.201311 
  151000     294.097531   52798.643679       0.468555  -10101.495070  -10675.700084     189.799287     193.571323      91.394141   -6240.153531   -4652.008473    -258.302831   -9800.985600     390.264912 
  152000     301.180184   52798.643679       0.468555  -10044.705282  -10632.738685     203.723617     198.603334      99.042825   -6192.950745   -4651.503936    -289.653779  -10432.228949    -503.268300 
  153000     288.627928   52798.643679       0.468555  -10114.789559  -10678.315552     188.742738     187.923327      96.510388   -6212.535317   -4652.564943    -286.391746  -10171.070866     -73.091271 
  154000     304.675704   52798.643679       0.468555  -10057.747911  -10652.606074     180.429432     201.689507     100.843750   -6193.203243   -4651.330720    -291.034800   -9814.687873     315.656623 
  155000     292.180226   52798.643679       0.468555  -10104.597645  -10675.059254     182.942582     196.452612     102.401193   -6238.311649   -4652.326502    -266.217489   -9952.851711     197.069043 
  156000     318.369705   52798.643679       0.468555  -10076.564502  -10698.159252     177.568350     185.494908      89.228162   -6209.492323   -4653.627821    -287.330527   -9964.437324     145.617053 
  157000     302.670032   52798.643679       0.468555  -10104.142285  -10695.084513     178.230222     187.044561      80.603856   -6172.104441   -4654.304900    -314.553811  -10097.146455       9.085327 
  158000     306.777114   52798.643679       0.468555  -10090.826333  -10689.787353     178.628932     184.373423      95.006503   -6237.175140   -4651.008735    -259.612337  -10295.746276    -266.124937 
  159000     297.258960   52798.643679       0.468555  -10130.067455  -10710.444940     158.770585     187.082102      83.098420   -6227.443850   -4651.118600    -260.833597   -9808.461936     417.661878 
  160000     313.568531   52798.643679       0.468555  -10030.222930  -10642.443720     182.991136     219.048636      97.699284   -6197.727007   -4652.856075    -291.599694   -9768.960656     339.295459 
  161000     283.520623   52798.643679       0.468555  -10116.984654  -10670.538990     172.075999     198.357420      96.171189   -6242.876027   -4650.177084    -244.090487   -9859.941703     333.815919 
  162000     305.247310   52798.643679       0.468555  -10066.852728  -10662.826911     173.945455     200.633118     100.300432   -6196.253988   -4652.720583    -288.731345  -10037.507015      38.110620 
  163000     273.589432   52798.643679       0.468555  -10119.556316  -10653.720690     185.528753     205.436423      96.861267   -6194.664403   -4652.133849    -294.748881  -10075.240428      57.552051 
  164000     300.245084   52798.643679       0.468555  -10083.697228  -10669.904912     191.522720     188.541484      91.090442   -6232.056925   -4650.432689    -258.569943  -10047.585837      46.897053 
  165000     311.156771   52798.643679       0.468555  -10061.135326  -10668.647323     182.092540     193.663273     102.286336   -6183.566169   -4651.860353    -311.262950  -10585.467483    -680.938419 
  166000     316.042838   52798.643679       0.468555  -10049.430627  -10666.482329     177.770456     187.841731     110.345285   -6221.404342   -4651.736888    -269.298571   -9913.423322     176.629638 
  167000     310.583821   52798.643679       0.468555  -10075.172916  -10681.566266     182.259183     182.655320      98.227283   -6191.936078   -4651.183377    -301.588597  -10316.658804    -313.612310 
  168000     279.767601   52798.643679       0.468555  -10131.424041  -10677.650862     186.571835     188.210540      96.262962   -6173.116067   -4652.371504    -323.208628  -10200.563141     -89.789399 
  169000     288.295751   52798.643679       0.468555  -10084.851710  -10647.729150     196.065545     192.780012     100.393815   -6184.341594   -4652.360674    -300.266254  -10232.296815    -191.483653 
  170000     290.522069   52798.643679       0.468555  -10138.723412  -10705.947584     184.664808     168.547210      96.168136   -6204.026971   -4650.098696    -301.202070  -10421.953772    -367.824920 
  171000     314.235643   52798.643679       0.468555  -10068.129659  -10681.652939     179.160712     177.334082     104.687643   -6201.510885   -4652.820625    -288.503866  -10166.637930    -127.930483 
  172000     288.408737   52798.643679       0.468555  -10092.187927  -10655.285965     196.249786     189.589401      91.636327   -6203.593457   -4652.459413    -276.708610   -9740.727827     456.433353 
  173000     290.771141   52798.643679       0.468555  -10138.826114  -10706.536583     178.610262     186.189166      92.263294   -6244.231498   -4652.563720    -266.804086   -9924.043057     278.933942 
  174000     298.287250   52798.643679       0.468555  -10082.155617  -10664.540766     199.702453     193.641155      86.812597   -6212.886306   -4649.483254    -282.327412   -9820.717932     339.523262 
  175000     314.912835   52798.643679       0.468555  -10053.574510  -10668.419959     195.811701     197.697120      85.098996   -6205.101629   -4651.548977    -290.377169  -10148.062880    -122.709929 
  176000     300.349197   52798.643679       0.468555  -10084.758082  -10671.169039     189.729304     198.165687      89.688673   -6208.933408   -4650.957189    -288.862106   -9928.995322     202.285605 
  177000     297.862912   52798.643679       0.468555  -10067.418594  -10648.975252     204.089440     203.974377      98.201930   -6196.379143   -4651.837555    -307.024302  -10586.450736    -674.055408 
  178000     291.516077   52798.643679       0.468555  -10111.076474  -10680.241378     185.059450     196.865739      90.036338   -6190.533661   -4653.748404    -307.920840  -10396.190742    -370.271509 
  179000     301.337482   52798.643679       0.468555  -10072.817662  -10661.158178     188.000613     204.105420      86.786903   -6163.378659   -4652.250965    -324.421491  -10123.852499     -66.277798 
  180000     300.052130   52798.643679       0.468555  -10078.077274  -10663.908228     196.516103     205.455954      87.264247   -6215.197896   -4650.981468    -286.965169   -9969.250487     141.330908 
  181000     291.133202   52798.643679       0.468555  -10084.646786  -10653.064152     199.266582     197.303690      86.055569   -6195.400300   -4651.437413    -288.852279  -10179.840167    -123.625511 
  182000     288.919398   52798.643679       0.468555  -10113.382153  -10677.477222     177.381244     193.511023      88.868948   -6234.353602   -4651.325401    -251.559435  -10041.000962      93.999830 
  183000     305.566085   52798.643679       0.468555  -10076.042336  -10672.638905     187.944221     202.049196      93.195308   -6217.881761   -4651.963921    -285.981949  -10185.542667    -142.205625 
  184000     282.275453   52798.643679       0.468555  -10134.332433  -10685.455660     170.072155     191.947563     103.724976   -6182.392003   -4651.873507    -316.934843  -10357.591883    -289.942043 
  185000     309.314903   52798.643679       0.468555  -10071.235061  -10675.150937     171.259348     182.260655      99.557284   -6165.341197   -4652.222856    -310.664172   -9899.605719     222.891179 
  186000     308.028177   52798.643679       0.468555  -10052.231060  -10653.634693     183.316312     204.565340      89.835434   -6198.599280   -4651.166374    -281.586126  -10000.726760      66.887481 
  187000     303.320643   52798.643679       0.468555  -10101.955147  -10694.167646     160.971985     197.324535      95.307306   -6214.406271   -4651.171839    -282.193363   -9820.418146     365.625791 
  188000     298.949397   52798.643679       0.468555  -10083.247907  -10666.925852     188.726265     191.306656      94.013727   -6192.055201   -4652.819216    -296.098084   -9980.749442     133.112459 
  189000     293.169231   52798.643679       0.468555  -10107.882368  -10680.274940     173.916441     195.365267     101.385528   -6203.039585   -4653.637463    -294.265128  -10169.081891     -79.478448 
  190000     293.027825   52798.643679       0.468555  -10094.840725  -10666.957211     184.665917     189.653810     109.510621   -6186.770505   -4653.387239    -310.629815  -10140.691089     -59.544839 
  191000     284.326805   52798.643679       0.468555  -10139.393165  -10694.521514     172.213286     182.588490      86.423807   -6190.443692   -4651.419952    -293.883454   -9593.680865     708.704332 
  192000     319.425971   52798.643679       0.468555  -10076.868544  -10700.525580     179.835091     185.096407      89.951524   -6194.245517   -4653.124722    -308.038363  -10227.755095    -195.952980 
  193000     289.732607   52798.643679       0.468555  -10125.477747  -10691.160550     178.490682     194.687333     102.838696   -6216.480039   -4653.910666    -296.786556  -10046.472638     102.602165 
  194000     321.727239   52798.643679       0.468555  -10045.553719  -10673.703820     189.670691     194.177377      92.724333   -6215.115237   -4652.300800    -282.860183  -10057.955581     -16.106021 
  195000     308.900408   52798.643679       0.468555  -10092.453621  -10695.560226     179.635446     177.624285      98.254206   -6185.266943   -4654.490217    -311.317003   -9609.055632     627.778132 
  196000     309.613092   52798.643679       0.468555  -10058.376389  -10662.874459     185.178365     202.403648      99.355165   -6212.890132   -4652.302074    -284.619432   -9906.129133     197.720098 
  197000     312.984674   52798.643679       0.468555  -10083.920486  -10695.001336     195.099197     182.281075      96.816692   -6219.036926   -4652.963617    -297.197757  -10203.152329    -154.843721 
  198000     301.996505   52798.643679       0.468555  -10075.263143  -10664.890356     189.425908     189.842492     108.657942   -6227.397710   -4651.843368    -273.575620   -9830.570261     317.777162 
  199000     313.279648   52798.643679       0.468555  -10118.864339  -10730.521105     174.406538     161.002830     105.486049   -6210.335100   -4653.547408    -307.534014   -9992.181895     164.519651 
  200000     297.835648   52798.643679       0.468555  -10107.014658  -10688.518087     173.842518     188.814314     100.269461   -6247.407247   -4649.667060    -254.370073   -9866.616098     312.200221 
  201000     283.541332   52798.643679       0.468555  -10113.336491  -10666.931259     184.530573     208.305236     112.261486   -6238.081571   -4654.354365    -279.592617  -10144.431159     -40.381948 
  202000     293.184981   52798.643679       0.468555  -10070.619883  -10643.043207     191.694058     204.431609      99.775241   -6227.667642   -4652.200170    -259.076303   -9993.288342     100.428739 
  203000     303.896114   52798.643679       0.468555  -10065.267512  -10658.603579     174.227186     202.915005     107.527585   -6202.598523   -4653.046153    -287.628679   -9937.809368     165.527035 
  204000     311.734981   52798.643679       0.468555  -10073.837204  -10682.478116     173.551514     188.180878     100.414837   -6216.370818   -4651.862378    -276.392148   -9874.431840     258.963277 
  205000     302.513400   52798.643679       0.468555  -10089.941188  -10680.577603     169.190550     194.473399      95.641213   -6226.693008   -4651.906492    -261.283264   -9799.873523     376.704374 
  206000     293.706283   52798.643679       0.468555  -10129.270397  -10702.711527     170.182677     185.704186      96.521815   -6204.958300   -4650.856046    -299.305858  -10142.291251     -16.909892 
  207000     307.325323   52798.643679       0.468555  -10088.804497  -10688.835856     174.321454     199.772498      94.485216   -6249.856702   -4652.063112    -255.495210   -9856.133342     302.164813 
  208000     312.090993   52798.643679       0.468555  -10060.747916  -10670.083915     184.871091     204.186528      84.802869   -6213.636505   -4652.030898    -278.277000  -10276.482818    -280.170081 
  209000     299.082542   52798.643679       0.468555  -10086.370776  -10670.308676     185.773514     189.230764      96.674817   -6225.370809   -4650.882187    -265.734775  -10406.222025    -415.383648 
  210000     291.398856   52798.643679       0.468555  -10097.783328  -10666.719367     176.962830     184.898608     108.405066   -6191.320832   -4652.562796    -293.102243  -10183.921355    -111.865524 
Loop time of 107.577 on 128 procs for 100000 steps with 656 atoms

Performance: 80.315 ns/day, 0.299 hours/ns, 929.571 timesteps/s
99.9% CPU use with 128 MPI tasks x 1 OpenMP threads

MPI task timing breakdown:
Section |  min time  |  avg time  |  max time  |%varavg| %total
---------------------------------------------------------------
Pair    | 0.025628   | 11.163     | 49.896     | 578.5 | 10.38
Bond    | 0.012112   | 0.81801    | 3.481      | 154.2 |  0.76
Kspace  | 32.517     | 77.934     | 96.718     | 260.0 | 72.44
Neigh   | 1.4081     | 1.7171     | 2.095      |  19.1 |  1.60
Comm    | 0.075631   | 7.2383     | 12.207     | 166.5 |  6.73
Output  | 0.057838   | 0.057967   | 0.059175   |   0.0 |  0.05
Modify  | 7.9268     | 7.9912     | 8.0623     |   1.0 |  7.43
Other   |            | 0.6573     |            |       |  0.61

Nlocal:    5.125 ave 26 max 0 min
Histogram: 96 0 0 0 0 1 9 7 10 5
Nghost:    865.242 ave 1664 max 0 min
Histogram: 32 0 32 0 0 0 0 0 32 32
Neighs:    490.531 ave 3041 max 0 min
Histogram: 96 0 0 2 8 3 6 6 6 1

Total # of neighbors = 62788
Ave neighs/atom = 95.7134
Ave special neighs/atom = 8.19512
Neighbor list builds = 2103
Dangerous builds = 0
System init for write_restart ...
PPPM initialization ...
  using 12-bit tables for long-range coulomb (src/kspace.cpp:332)
  G vector (1/distance) = 0.159158
  grid = 8 18 8
  stencil order = 5
  estimated absolute RMS force accuracy = 0.02169
  estimated relative force accuracy = 6.53188e-05
  using double precision KISS FFT
  3d grid and FFT values/proc = 392 16
Neighbor list info ...
  update every 1 steps, delay 10 steps, check yes
  max neighbors/atom: 10000, page size: 100000
  master list distance cutoff = 17
  ghost atom cutoff = 17
  binsize = 8.5, bins = 3 11 3
  3 neighbor lists, perpetual/occasional/extra = 3 0 0
  (1) pair buck/coul/long, perpetual, skip from (3)
      attributes: half, newton off
      pair build: skip
      stencil: none
      bin: none
  (2) pair lj/cut/coul/long, perpetual, skip from (3)
      attributes: half, newton off
      pair build: skip
      stencil: none
      bin: none
  (3) neighbor class addition, perpetual
      attributes: half, newton off
      pair build: half/bin/newtoff
      stencil: half/bin/3d/newtoff
      bin: standard
System init for write_data ...
PPPM initialization ...
  using 12-bit tables for long-range coulomb (src/kspace.cpp:332)
  G vector (1/distance) = 0.159158
  grid = 8 18 8
  stencil order = 5
  estimated absolute RMS force accuracy = 0.02169
  estimated relative force accuracy = 6.53188e-05
  using double precision KISS FFT
  3d grid and FFT values/proc = 392 16
Neighbor list info ...
  update every 1 steps, delay 10 steps, check yes
  max neighbors/atom: 10000, page size: 100000
  master list distance cutoff = 17
  ghost atom cutoff = 17
  binsize = 8.5, bins = 3 11 3
  3 neighbor lists, perpetual/occasional/extra = 3 0 0
  (1) pair buck/coul/long, perpetual, skip from (3)
      attributes: half, newton off
      pair build: skip
      stencil: none
      bin: none
  (2) pair lj/cut/coul/long, perpetual, skip from (3)
      attributes: half, newton off
      pair build: skip
      stencil: none
      bin: none
  (3) neighbor class addition, perpetual
      attributes: half, newton off
      pair build: half/bin/newtoff
      stencil: half/bin/3d/newtoff
      bin: standard
Total wall time: 0:03:51
