
                                 *****************
                                 * O   R   C   A *
                                 *****************

           --- An Ab Initio, DFT and Semiempirical electronic structure package ---

                  #######################################################
                  #                        -***-                        #
                  #          Department of theory and spectroscopy      #
                  #               Directorship: Frank Neese             #
                  #        Max Planck Institute fuer Kohlenforschung    #
                  #                Kaiser Wilhelm Platz 1               #
                  #                 D-45470 Muelheim/Ruhr               #
                  #                      Germany                        #
                  #                                                     #
                  #                  All rights reserved                #
                  #                        -***-                        #
                  #######################################################


                         Program Version 4.1.2  - RELEASE  -


 With contributions from (in alphabetic order):
   Daniel Aravena         : Magnetic Properties
   Michael Atanasov       : Ab Initio Ligand Field Theory
   Alexander A. Auer      : GIAO ZORA
   Ute Becker             : Parallelization
   Giovanni Bistoni       : ED, Open-shell LED
   Martin Brehm           : Molecular dynamics
   Dmytro Bykov           : SCF Hessian
   Vijay G. Chilkuri      : MRCI spin determinant printing
   Dipayan Datta          : RHF DLPNO-CCSD density
   Achintya Kumar Dutta   : EOM-CC, STEOM-CC
   Dmitry Ganyushin       : Spin-Orbit,Spin-Spin,Magnetic field MRCI
   Miquel Garcia          : C-PCM Hessian
   Yang Guo               : DLPNO-NEVPT2, CIM, IAO-localization
   Andreas Hansen         : Spin unrestricted coupled pair/coupled cluster methods
   Benjamin Helmich-Paris : CASSCF linear response (MC-RPA)
   Lee Huntington         : MR-EOM, pCC
   Robert Izsak           : Overlap fitted RIJCOSX, COSX-SCS-MP3, EOM
   Christian Kollmar      : KDIIS, OOCD, Brueckner-CCSD(T), CCSD density
   Simone Kossmann        : Meta GGA functionals, TD-DFT gradient, OOMP2, MP2 Hessian
   Martin Krupicka        : AUTO-CI
   Lucas Lang             : DCDCAS
   Dagmar Lenk            : GEPOL surface, SMD
   Dimitrios Liakos       : Extrapolation schemes; parallel MDCI
   Dimitrios Manganas     : ROCIS; embedding schemes
   Dimitrios Pantazis     : SARC Basis sets
   Taras Petrenko         : DFT Hessian,TD-DFT gradient, ASA, ECA, R-Raman, ABS, FL, XAS/XES, NRVS
   Peter Pinski           : DLPNO-MP2, DLPNO-MP2 Gradient
   Christoph Reimann      : Effective Core Potentials
   Marius Retegan         : Local ZFS, SOC
   Christoph Riplinger    : Optimizer, TS searches, QM/MM, DLPNO-CCSD(T), (RO)-DLPNO pert. Triples
   Tobias Risthaus        : Range-separated hybrids, TD-DFT gradient, RPA, STAB
   Michael Roemelt        : Restricted open shell CIS
   Masaaki Saitow         : Open-shell DLPNO
   Barbara Sandhoefer     : DKH picture change effects
   Avijit Sen             : IP-ROCIS
   Kantharuban Sivalingam : CASSCF convergence, NEVPT2, FIC-MRCI
   Bernardo de Souza      : ESD, SOC TD-DFT
   Georgi Stoychev        : AutoAux, RI-MP2 NMR
   Willem Van den Heuvel  : Paramagnetic NMR
   Boris Wezisla          : Elementary symmetry handling
   Frank Wennmohs         : Technical directorship


 We gratefully acknowledge several colleagues who have allowed us to
 interface, adapt or use parts of their codes:
   Stefan Grimme, W. Hujo, H. Kruse,             : VdW corrections, initial TS optimization,
                  C. Bannwarth                     DFT functionals, gCP, sTDA/sTD-DF
   Ed Valeev                                     : LibInt (2-el integral package), F12 methods
   Garnet Chan, S. Sharma, J. Yang, R. Olivares  : DMRG
   Ulf Ekstrom                                   : XCFun DFT Library
   Mihaly Kallay                                 : mrcc  (arbitrary order and MRCC methods)
   Andreas Klamt, Michael Diedenhofen            : otool_cosmo (COSMO solvation model)
   Jiri Pittner, Ondrej Demel                    : Mk-CCSD
   Frank Weinhold                                : gennbo (NPA and NBO analysis)
   Christopher J. Cramer and Donald G. Truhlar   : smd solvation model
   Lars Goerigk                                  : TD-DFT with DH, B97 family of functionals
   V. Asgeirsson, H. Jonsson                     : NEB implementation
   FAccTs GmbH                                   : IRC, NEB, NEB-TS, Multilevel


 Your calculation uses the libint2 library for the computation of 2-el integrals
 For citations please refer to: http://libint.valeyev.net

 This ORCA versions uses:
   CBLAS   interface :  Fast vector & matrix operations
   LAPACKE interface :  Fast linear algebra routines
   SCALAPACK package :  Parallel linear algebra routines


Your calculation utilizes the atom-pairwise dispersion correction
with the zero-damping scheme (D30)
Cite in your paper:
S.Grimme, J.Antony, S.Ehrlich and H.Krieg, J.Chem.Phys., 132, (2010), 154104 
   

XCFun DFT library Copyright 2009-2010 Ulf Ekstrom and contributors.
See http://admol.org/xcfun for more information. This is free soft-
ware; see the source code for copying conditions. There is ABSOLUTELY
NO WARRANTY; not even for MERCHANTABILITY or FITNESS FOR A PARTICULAR
PURPOSE. For details see the documentation. Scientific users of this 
library should cite U. Ekstrom, L. Visscher, R. Bast, A. J. Thorvald-
sen and K. Ruud; J.Chem.Theor.Comp. 2010, DOI: 10.1021/ct100117s
XCFun Version 0.99 
----- Orbital basis set information -----
Your calculation utilizes the basis: def2-TZVP
   F. Weigend and R. Ahlrichs, Phys. Chem. Chem. Phys. 7, 3297 (2005).

================================================================================
                                        WARNINGS
                       Please study these warnings very carefully!
================================================================================


INFO   : the flag for use of LIBINT has been found!

================================================================================
                                       INPUT FILE
================================================================================
NAME = charge.in
|  1> # CHELPG calculation for  /home/lin1209/test_ligand/NH3_2C_Angew-1+H_minimized/geo_xtb/xtbopt.xyz
|  2> ! wB97X-D3 def2-TZVP TightSCF CHELPG Grid4 
|  3> 
|  4> %base "charges"
|  5> 
|  6> %pal nprocs 128
|  7> end
|  8> #     charge multiplicity
|  9> * xyz 1 1
| 10>   N           0.54043272271497   -3.71895032398973    0.79410079297299
| 11>   C          -0.07829672114562    2.67439018289003    0.24217136973119
| 12>   H          -0.32098543800784   -4.09355127559432    0.37539439023346
| 13>   H           0.69905632281483   -4.18492833318179    1.69645292112050
| 14>   H           1.32415793662676   -3.93821815572802    0.16457821204747
| 15>   C           0.42326644383892   -2.23108581569009    0.95320269925065
| 16>   H          -0.42768922528377   -2.01663405480655    1.60131643280006
| 17>   H           1.32945019872262   -1.86144062169340    1.43463900245509
| 18>   C           0.23679827628600   -1.55561398440626   -0.39985566170679
| 19>   H          -0.66974712972372   -1.92352891946558   -0.88312522371082
| 20>   H           1.09146186322840   -1.76730174835436   -1.04522802907578
| 21>   C           1.26803956741273    0.71747667657920   -0.08893658471698
| 22>   C           1.16741595145579    2.08095738649398    0.12470070102046
| 23>   C           0.12314883942323   -0.06083564587133   -0.19060369770640
| 24>   C          -1.12271904484678    0.53801398839826   -0.06856204255296
| 25>   C          -1.22294818979891    1.90192393021987    0.14409387858930
| 26>   H           2.24269063378247    0.26207241535497   -0.19169859459876
| 27>   H           2.06176156400495    2.67995084829395    0.19569901634190
| 28>   H          -2.01946135829497   -0.05856421059955   -0.15384478783318
| 29>   H          -0.15626942255060    3.73811637205882    0.40452896503693
| 30>   H          -2.19556379065934    2.36085128909195    0.22947624030196
| 31> **                         ****END OF INPUT****
================================================================================

                       ****************************
                       * Single Point Calculation *
                       ****************************

---------------------------------
CARTESIAN COORDINATES (ANGSTROEM)
---------------------------------
  N      0.540433   -3.718950    0.794101
  C     -0.078297    2.674390    0.242171
  H     -0.320985   -4.093551    0.375394
  H      0.699056   -4.184928    1.696453
  H      1.324158   -3.938218    0.164578
  C      0.423266   -2.231086    0.953203
  H     -0.427689   -2.016634    1.601316
  H      1.329450   -1.861441    1.434639
  C      0.236798   -1.555614   -0.399856
  H     -0.669747   -1.923529   -0.883125
  H      1.091462   -1.767302   -1.045228
  C      1.268040    0.717477   -0.088937
  C      1.167416    2.080957    0.124701
  C      0.123149   -0.060836   -0.190604
  C     -1.122719    0.538014   -0.068562
  C     -1.222948    1.901924    0.144094
  H      2.242691    0.262072   -0.191699
  H      2.061762    2.679951    0.195699
  H     -2.019461   -0.058564   -0.153845
  H     -0.156269    3.738116    0.404529
  H     -2.195564    2.360851    0.229476

----------------------------
CARTESIAN COORDINATES (A.U.)
----------------------------
  NO LB      ZA    FRAG     MASS         X           Y           Z
   0 N     7.0000    0    14.007    1.021270   -7.027798    1.500633
   1 C     6.0000    0    12.011   -0.147959    5.053865    0.457638
   2 H     1.0000    0     1.008   -0.606575   -7.735691    0.709393
   3 H     1.0000    0     1.008    1.321025   -7.908368    3.205831
   4 H     1.0000    0     1.008    2.502296   -7.442154    0.311008
   5 C     6.0000    0    12.011    0.799858   -4.216141    1.801292
   6 H     1.0000    0     1.008   -0.808216   -3.810886    3.026050
   7 H     1.0000    0     1.008    2.512297   -3.517613    2.711075
   8 C     6.0000    0    12.011    0.447484   -2.939684   -0.755618
   9 H     1.0000    0     1.008   -1.265639   -3.634943   -1.668865
  10 H     1.0000    0     1.008    2.062564   -3.339716   -1.975195
  11 C     6.0000    0    12.011    2.396248    1.355834   -0.168066
  12 C     6.0000    0    12.011    2.206096    3.932440    0.235650
  13 C     6.0000    0    12.011    0.232718   -0.114963   -0.360189
  14 C     6.0000    0    12.011   -2.121632    1.016699   -0.129563
  15 C     6.0000    0    12.011   -2.311037    3.594115    0.272298
  16 H     1.0000    0     1.008    4.238071    0.495245   -0.362258
  17 H     1.0000    0     1.008    3.896165    5.064373    0.369818
  18 H     1.0000    0     1.008   -3.816229   -0.110670   -0.290725
  19 H     1.0000    0     1.008   -0.295306    7.064016    0.764449
  20 H     1.0000    0     1.008   -4.149014    4.461362    0.433647

--------------------------------
INTERNAL COORDINATES (ANGSTROEM)
--------------------------------
 N      0   0   0     0.000000000000     0.00000000     0.00000000
 C      1   0   0     6.446879481567     0.00000000     0.00000000
 H      1   2   0     1.028436761430   104.23950418     0.00000000
 H      1   2   3     1.027879523452   122.65245117   236.17721380
 H      1   2   3     1.028883993875   103.41874366   112.99923368
 C      1   2   5     1.500927096346    11.04365933   125.35198940
 H      6   1   4     1.090947533190   108.58597838   299.16741321
 H      6   1   4     1.090682117348   108.53567799    57.06871112
 C      6   1   4     1.523745221658   110.78509321   178.04364968
 H      9   6   1     1.091208248758   110.21036299    59.98201837
 H      9   6   1     1.091680836515   110.07107593   299.90341338
 C      2   1   3     2.398283625965    31.65261663   230.11389556
 C     12   2   1     1.383779479634    29.98793709   207.03877035
 C     12   2   1     1.388121411181    90.26409249    27.21061529
 C     14  12   2     1.387696593320   119.47716266   359.72742373
 C     15  14  12     1.384022670224   120.25179710     0.42125104
 H     12   2   1     1.080693190962   149.68528078   205.76913666
 H     13  12   2     1.078743715042   119.80163747   180.22571679
 H     15  14  12     1.080428373790   119.99560412   179.53158323
 H      2   1   3     1.078866598075   166.36833732   121.93010254
 H     16  15  14     1.078835286524   119.77917936   179.48188032

---------------------------
INTERNAL COORDINATES (A.U.)
---------------------------
 N      0   0   0     0.000000000000     0.00000000     0.00000000
 C      1   0   0    12.182836638558     0.00000000     0.00000000
 H      1   2   0     1.943463825160   104.23950418     0.00000000
 H      1   2   3     1.942410797989   122.65245117   236.17721380
 H      1   2   3     1.944308971998   103.41874366   112.99923368
 C      1   2   5     2.836341159075    11.04365933   125.35198940
 H      6   1   4     2.061592064206   108.58597838   299.16741321
 H      6   1   4     2.061090500953   108.53567799    57.06871112
 C      6   1   4     2.879461166805   110.78509321   178.04364968
 H      9   6   1     2.062084745228   110.21036299    59.98201837
 H      9   6   1     2.062977806663   110.07107593   299.90341338
 C      2   1   3     4.532099244541    31.65261663   230.11389556
 C     12   2   1     2.614964246248    29.98793709   207.03877035
 C     12   2   1     2.623169307764    90.26409249    27.21061529
 C     14  12   2     2.622366518351   119.47716266   359.72742373
 C     15  14  12     2.615423809862   120.25179710     0.42125104
 H     12   2   1     2.042214165712   149.68528078   205.76913666
 H     13  12   2     2.038530190119   119.80163747   180.22571679
 H     15  14  12     2.041713733781   119.99560412   179.53158323
 H      2   1   3     2.038762405397   166.36833732   121.93010254
 H     16  15  14     2.038703235141   119.77917936   179.48188032

---------------------
BASIS SET INFORMATION
---------------------
There are 3 groups of distinct atoms

 Group   1 Type N   : 11s6p2d1f contracted to 5s3p2d1f pattern {62111/411/11/1}
 Group   2 Type C   : 11s6p2d1f contracted to 5s3p2d1f pattern {62111/411/11/1}
 Group   3 Type H   : 5s1p contracted to 3s1p pattern {311/1}

Atom   0N    basis set group =>   1
Atom   1C    basis set group =>   2
Atom   2H    basis set group =>   3
Atom   3H    basis set group =>   3
Atom   4H    basis set group =>   3
Atom   5C    basis set group =>   2
Atom   6H    basis set group =>   3
Atom   7H    basis set group =>   3
Atom   8C    basis set group =>   2
Atom   9H    basis set group =>   3
Atom  10H    basis set group =>   3
Atom  11C    basis set group =>   2
Atom  12C    basis set group =>   2
Atom  13C    basis set group =>   2
Atom  14C    basis set group =>   2
Atom  15C    basis set group =>   2
Atom  16H    basis set group =>   3
Atom  17H    basis set group =>   3
Atom  18H    basis set group =>   3
Atom  19H    basis set group =>   3
Atom  20H    basis set group =>   3


           ************************************************************
           *        Program running with 128 parallel MPI-processes   *
           *              working on a common directory               *
           ************************************************************
------------------------------------------------------------------------------
                           ORCA GTO INTEGRAL CALCULATION
------------------------------------------------------------------------------

                         BASIS SET STATISTICS AND STARTUP INFO

 # of primitive gaussian shells          ...  252
 # of primitive gaussian functions       ...  510
 # of contracted shells                  ...  147
 # of contracted basis functions         ...  351
 Highest angular momentum                ...    3
 Maximum contraction depth               ...    6
 Integral package used                   ... LIBINT
 Integral threshhold            Thresh   ...  2.500e-11
 Primitive cut-off              TCut     ...  2.500e-12


------------------------------ INTEGRAL EVALUATION ----------------------------


 * One electron integrals 
 Pre-screening matrix                    ... done
 Shell pair data                         ... done (   0.003 sec)



           ************************************************************
           *        Program running with 128 parallel MPI-processes   *
           *              working on a common directory               *
           ************************************************************
-------------------------------------------------------------------------------
                                 ORCA SCF
-------------------------------------------------------------------------------

------------
SCF SETTINGS
------------
Hamiltonian:
 Density Functional     Method          .... DFT(GTOs)
 Exchange Functional    Exchange        .... WB97X-D3
 Correlation Functional Correlation     .... WB97X-D3
 Gradients option       PostSCFGGA      .... off
 Hybrid DFT is turned on
   Fraction HF Exchange ScalHFX         ....  0.195728
   Scaling of DF-GGA-X  ScalDFX         ....  0.000000
   Scaling of DF-GGA-C  ScalDFC         ....  1.000000
   Scaling of DF-LDA-C  ScalLDAC        ....  1.000000
   Perturbative correction              ....  0.000000
   Density functional embedding theory  .... OFF
 Long-range corrected/Screened/Range-Separated Hybrid DFT is turned on
   Amount of maximum screened exact exchange              ....  0.804272
   Range separation parameter mu (erf(mu*r12)/r12)        ....  0.250000


General Settings:
 Integral files         IntName         .... charges
 Hartree-Fock type      HFTyp           .... RHF
 Total Charge           Charge          ....    1
 Multiplicity           Mult            ....    1
 Number of Electrons    NEL             ....   66
 Basis Dimension        Dim             ....  351
 Nuclear Repulsion      ENuc            ....    426.2311605701 Eh

Convergence Acceleration:
 DIIS                   CNVDIIS         .... on
   Start iteration      DIISMaxIt       ....    12
   Startup error        DIISStart       ....  0.200000
   # of expansion vecs  DIISMaxEq       ....     5
   Bias factor          DIISBfac        ....   1.050
   Max. coefficient     DIISMaxC        ....  10.000
 Newton-Raphson         CNVNR           .... off
 SOSCF                  CNVSOSCF        .... on
   Start iteration      SOSCFMaxIt      ....   150
   Startup grad/error   SOSCFStart      ....  0.003300
 Level Shifting         CNVShift        .... on
   Level shift para.    LevelShift      ....    0.2500
   Turn off err/grad.   ShiftErr        ....    0.0010
 Zerner damping         CNVZerner       .... off
 Static damping         CNVDamp         .... on
   Fraction old density DampFac         ....    0.7000
   Max. Damping (<1)    DampMax         ....    0.9800
   Min. Damping (>=0)   DampMin         ....    0.0000
   Turn off err/grad.   DampErr         ....    0.1000
 Fernandez-Rico         CNVRico         .... off

SCF Procedure:
 Maximum # iterations   MaxIter         ....   125
 SCF integral mode      SCFMode         .... Direct
   Integral package                     .... LIBINT
 Reset frequency        DirectResetFreq ....    20
 Integral Threshold     Thresh          ....  2.500e-11 Eh
 Primitive CutOff       TCut            ....  2.500e-12 Eh

Convergence Tolerance:
 Convergence Check Mode ConvCheckMode   .... Total+1el-Energy
 Convergence forced     ConvForced      .... 0
 Energy Change          TolE            ....  1.000e-08 Eh
 1-El. energy change                    ....  1.000e-05 Eh
 Orbital Gradient       TolG            ....  1.000e-05
 Orbital Rotation angle TolX            ....  1.000e-05
 DIIS Error             TolErr          ....  5.000e-07


Diagonalization of the overlap matrix:
Smallest eigenvalue                        ... 8.009e-06
Time for diagonalization                   ...    0.034 sec
Threshold for overlap eigenvalues          ... 1.000e-08
Number of eigenvalues below threshold      ... 0
Time for construction of square roots      ...    0.135 sec
Total time needed                          ...    0.170 sec

-------------------
DFT GRID GENERATION
-------------------

General Integration Accuracy     IntAcc      ...  4.670
Radial Grid Type                 RadialGrid  ... Gauss-Chebyshev
Angular Grid (max. acc.)         AngularGrid ... Lebedev-302
Angular grid pruning method      GridPruning ... 3 (G Style)
Weight generation scheme         WeightScheme... Becke
Basis function cutoff            BFCut       ...    1.0000e-11
Integration weight cutoff        WCut        ...    1.0000e-14
Grids for H and He will be reduced by one unit

# of grid points (after initial pruning)     ...  96636 (   0.0 sec)
# of grid points (after weights+screening)   ...  86973 (   0.3 sec)
nearest neighbour list constructed           ...    0.0 sec
Grid point re-assignment to atoms done       ...    0.0 sec
Grid point division into batches done        ...    0.3 sec
Reduced shell lists constructed in    0.3 sec

Total number of grid points                  ...    86973
Total number of batches                      ...     1370
Average number of points per batch           ...       63
Average number of grid points per atom       ...     4142
Average number of shells per batch           ...    83.08 (56.52%)
Average number of basis functions per batch  ...   188.25 (53.63%)
Average number of large shells per batch     ...    64.33 (77.43%)
Average number of large basis fcns per batch ...   145.33 (77.20%)
Maximum spatial batch extension              ...   1.50,  1.51,  1.42 au
Average spatial batch extension              ...   0.01,  0.01,  0.01 au

Time for grid setup =    0.901 sec

------------------------------
INITIAL GUESS: MODEL POTENTIAL
------------------------------
Loading Hartree-Fock densities                     ... done
Calculating cut-offs                               ... done
Setting up the integral package                    ... done
Initializing the effective Hamiltonian             ... done
Starting the Coulomb interaction                   ... done (   0.0 sec)
Reading the grid                                   ... done
Mapping shells                                     ... done
Starting the XC term evaluation                    ... done (   0.0 sec)
  promolecular density results
     # of electrons  =     66.994196850
     EX              =    -51.055154093
     EC              =     -2.207723285
     EX+EC           =    -53.262877377
Transforming the Hamiltonian                       ... done (   0.0 sec)
Diagonalizing the Hamiltonian                      ... done (   0.0 sec)
Back transforming the eigenvectors                 ... done (   0.0 sec)
Now organizing SCF variables                       ... done
                      ------------------
                      INITIAL GUESS DONE (   1.4 sec)
                      ------------------
--------------
SCF ITERATIONS
--------------
ITER       Energy         Delta-E        Max-DP      RMS-DP      [F,P]     Damp
               ***  Starting incremental Fock matrix formation  ***
  0   -366.4034819489   0.000000000000 0.02783620  0.00076155  0.1396215 0.7000
  1   -366.4836933932  -0.080211444283 0.02928059  0.00065791  0.0829230 0.7000
                               ***Turning on DIIS***
  2   -366.5275988495  -0.043905456242 0.07176889  0.00152592  0.0457332 0.0000
  3   -366.6014323416  -0.073833492175 0.01149466  0.00030670  0.0362868 0.0000
  4   -366.6107121780  -0.009279836420 0.00429770  0.00011069  0.0054781 0.0000
                      *** Initiating the SOSCF procedure ***
                           *** Shutting down DIIS ***
                      *** Re-Reading the Fockian *** 
                      *** Removing any level shift *** 
ITER      Energy       Delta-E        Grad      Rot      Max-DP    RMS-DP
  5   -366.61093810  -0.0002259263  0.000939  0.000939  0.002007  0.000050
               *** Restarting incremental Fock matrix formation ***
  6   -366.61096408  -0.0000259798  0.000574  0.001453  0.000907  0.000028
  7   -366.61097058  -0.0000064935  0.000172  0.000826  0.000637  0.000018
  8   -366.61097212  -0.0000015379  0.000054  0.000077  0.000227  0.000005
  9   -366.61097230  -0.0000001895  0.000038  0.000091  0.000076  0.000002
 10   -366.61097232  -0.0000000119  0.000023  0.000051  0.000021  0.000001
 11   -366.61097233  -0.0000000098  0.000004  0.000013  0.000025  0.000001
                  ***Gradient check signals convergence***
              ***Rediagonalizing the Fockian in SOSCF/NRSCF***

               *****************************************************
               *                     SUCCESS                       *
               *           SCF CONVERGED AFTER  12 CYCLES          *
               *****************************************************

Setting up the final grid:

General Integration Accuracy     IntAcc      ...  5.010
Radial Grid Type                 RadialGrid  ... Gauss-Chebyshev
Angular Grid (max. acc.)         AngularGrid ... Lebedev-434
Angular grid pruning method      GridPruning ... 3 (G Style)
Weight generation scheme         WeightScheme... Becke
Basis function cutoff            BFCut       ...    1.0000e-11
Integration weight cutoff        WCut        ...    1.0000e-14
Grids for H and He will be reduced by one unit

# of grid points (after initial pruning)     ... 176478 (   0.0 sec)
# of grid points (after weights+screening)   ... 158567 (   0.4 sec)
nearest neighbour list constructed           ...    0.0 sec
Grid point re-assignment to atoms done       ...    0.0 sec
Grid point division into batches done        ...    1.1 sec
Reduced shell lists constructed in    1.1 sec

Total number of grid points                  ...   158567
Total number of batches                      ...     2490
Average number of points per batch           ...       63
Average number of grid points per atom       ...     7551
Average number of shells per batch           ...    83.71 (56.95%)
Average number of basis functions per batch  ...   188.86 (53.81%)
Average number of large shells per batch     ...    63.19 (75.48%)
Average number of large basis fcns per batch ...   142.33 (75.37%)
Maximum spatial batch extension              ...   1.30,  1.35,  1.48 au
Average spatial batch extension              ...   0.01,  0.01,  0.01 au

Final grid set up in    2.3 sec
Final integration                            ... done (   0.7 sec)
Change in XC energy                          ...    -0.000686807
Integrated number of electrons               ...    65.999967847
Previous integrated no of electrons          ...    66.000042989

----------------
TOTAL SCF ENERGY
----------------

Total Energy       :         -366.61165913 Eh           -9976.01042 eV

Components:
Nuclear Repulsion  :          426.23116057 Eh           11598.33953 eV
Electronic Energy  :         -792.84281970 Eh          -21574.34994 eV
One Electron Energy:        -1327.49866231 Eh          -36123.07506 eV
Two Electron Energy:          534.65584260 Eh           14548.72512 eV

Virial components:
Potential Energy   :         -731.55591337 Eh          -19906.64844 eV
Kinetic Energy     :          364.94425423 Eh            9930.63802 eV
Virial Ratio       :            2.00456893


DFT components:
N(Alpha)           :       32.999983923702 electrons
N(Beta)            :       32.999983923702 electrons
N(Total)           :       65.999967847405 electrons
E(XC)              :      -37.299013477739 Eh       
DFET-embed. en.    :        0.000000000000 Eh       

---------------
SCF CONVERGENCE
---------------

  Last Energy change         ...   -2.7228e-10  Tolerance :   1.0000e-08
  Last MAX-Density change    ...    2.5904e-05  Tolerance :   1.0000e-07
  Last RMS-Density change    ...    6.4662e-07  Tolerance :   5.0000e-09
  Last Orbital Gradient      ...    1.1554e-06  Tolerance :   1.0000e-05
  Last Orbital Rotation      ...    5.4577e-06  Tolerance :   1.0000e-05

             **** THE GBW FILE WAS UPDATED (charges.gbw) ****
             **** DENSITY FILE WAS UPDATED (charges.scfp.tmp) ****
             **** ENERGY FILE WAS UPDATED (charges.en.tmp) ****
----------------
ORBITAL ENERGIES
----------------

  NO   OCC          E(Eh)            E(eV) 
   0   2.0000     -14.748009      -401.3137 
   1   2.0000     -10.516338      -286.1641 
   2   2.0000     -10.448106      -284.3074 
   3   2.0000     -10.413658      -283.3700 
   4   2.0000     -10.394248      -282.8419 
   5   2.0000     -10.393768      -282.8288 
   6   2.0000     -10.386804      -282.6393 
   7   2.0000     -10.386442      -282.6294 
   8   2.0000     -10.383763      -282.5566 
   9   2.0000      -1.320593       -35.9352 
  10   2.0000      -1.110022       -30.2052 
  11   2.0000      -1.066184       -29.0123 
  12   2.0000      -0.987286       -26.8654 
  13   2.0000      -0.978884       -26.6368 
  14   2.0000      -0.926062       -25.1994 
  15   2.0000      -0.891675       -24.2637 
  16   2.0000      -0.879920       -23.9438 
  17   2.0000      -0.834706       -22.7135 
  18   2.0000      -0.811442       -22.0805 
  19   2.0000      -0.786296       -21.3962 
  20   2.0000      -0.735261       -20.0075 
  21   2.0000      -0.732235       -19.9251 
  22   2.0000      -0.672081       -18.2883 
  23   2.0000      -0.670663       -18.2497 
  24   2.0000      -0.666179       -18.1276 
  25   2.0000      -0.634034       -17.2529 
  26   2.0000      -0.627902       -17.0861 
  27   2.0000      -0.618571       -16.8322 
  28   2.0000      -0.584698       -15.9104 
  29   2.0000      -0.551996       -15.0206 
  30   2.0000      -0.548092       -14.9143 
  31   2.0000      -0.454539       -12.3686 
  32   2.0000      -0.452451       -12.3118 
  33   0.0000      -0.100496        -2.7346 
  34   0.0000      -0.057130        -1.5546 
  35   0.0000      -0.049391        -1.3440 
  36   0.0000      -0.036952        -1.0055 
  37   0.0000      -0.035225        -0.9585 
  38   0.0000      -0.016008        -0.4356 
  39   0.0000       0.019889         0.5412 
  40   0.0000       0.026268         0.7148 
  41   0.0000       0.032509         0.8846 
  42   0.0000       0.054391         1.4800 
  43   0.0000       0.055911         1.5214 
  44   0.0000       0.069135         1.8813 
  45   0.0000       0.081328         2.2131 
  46   0.0000       0.087263         2.3746 
  47   0.0000       0.089138         2.4256 
  48   0.0000       0.102982         2.8023 
  49   0.0000       0.116002         3.1566 
  50   0.0000       0.121131         3.2961 
  51   0.0000       0.143863         3.9147 
  52   0.0000       0.146212         3.9786 
  53   0.0000       0.147349         4.0096 
  54   0.0000       0.155853         4.2410 
  55   0.0000       0.173684         4.7262 
  56   0.0000       0.202539         5.5114 
  57   0.0000       0.211038         5.7426 
  58   0.0000       0.215200         5.8559 
  59   0.0000       0.219824         5.9817 
  60   0.0000       0.224829         6.1179 
  61   0.0000       0.228539         6.2189 
  62   0.0000       0.246613         6.7107 
  63   0.0000       0.250724         6.8226 
  64   0.0000       0.269337         7.3290 
  65   0.0000       0.272747         7.4218 
  66   0.0000       0.281898         7.6708 
  67   0.0000       0.288816         7.8591 
  68   0.0000       0.308316         8.3897 
  69   0.0000       0.318400         8.6641 
  70   0.0000       0.322582         8.7779 
  71   0.0000       0.333934         9.0868 
  72   0.0000       0.336820         9.1653 
  73   0.0000       0.341373         9.2892 
  74   0.0000       0.352435         9.5902 
  75   0.0000       0.356076         9.6893 
  76   0.0000       0.368325        10.0226 
  77   0.0000       0.374306        10.1854 
  78   0.0000       0.376943        10.2571 
  79   0.0000       0.383091        10.4244 
  80   0.0000       0.389145        10.5892 
  81   0.0000       0.392869        10.6905 
  82   0.0000       0.400676        10.9029 
  83   0.0000       0.409357        11.1392 
  84   0.0000       0.423378        11.5207 
  85   0.0000       0.432218        11.7612 
  86   0.0000       0.436887        11.8883 
  87   0.0000       0.471814        12.8387 
  88   0.0000       0.482014        13.1163 
  89   0.0000       0.485316        13.2061 
  90   0.0000       0.492120        13.3913 
  91   0.0000       0.496110        13.4999 
  92   0.0000       0.507394        13.8069 
  93   0.0000       0.526652        14.3309 
  94   0.0000       0.528038        14.3687 
  95   0.0000       0.553359        15.0577 
  96   0.0000       0.558266        15.1912 
  97   0.0000       0.594186        16.1686 
  98   0.0000       0.619590        16.8599 
  99   0.0000       0.639526        17.4024 
 100   0.0000       0.658718        17.9246 
 101   0.0000       0.666013        18.1231 
 102   0.0000       0.669536        18.2190 
 103   0.0000       0.686452        18.6793 
 104   0.0000       0.702133        19.1060 
 105   0.0000       0.723992        19.7008 
 106   0.0000       0.731170        19.8962 
 107   0.0000       0.744828        20.2678 
 108   0.0000       0.747421        20.3384 
 109   0.0000       0.774602        21.0780 
 110   0.0000       0.785008        21.3612 
 111   0.0000       0.804843        21.9009 
 112   0.0000       0.810018        22.0417 
 113   0.0000       0.828593        22.5472 
 114   0.0000       0.841568        22.9002 
 115   0.0000       0.867937        23.6178 
 116   0.0000       0.881752        23.9937 
 117   0.0000       0.883623        24.0446 
 118   0.0000       0.934447        25.4276 
 119   0.0000       0.969533        26.3823 
 120   0.0000       0.984127        26.7795 
 121   0.0000       0.989401        26.9230 
 122   0.0000       1.004752        27.3407 
 123   0.0000       1.034814        28.1587 
 124   0.0000       1.042920        28.3793 
 125   0.0000       1.055889        28.7322 
 126   0.0000       1.081150        29.4196 
 127   0.0000       1.101029        29.9605 
 128   0.0000       1.109810        30.1995 
 129   0.0000       1.123640        30.5758 
 130   0.0000       1.137327        30.9483 
 131   0.0000       1.148668        31.2569 
 132   0.0000       1.178980        32.0817 
 133   0.0000       1.191013        32.4091 
 134   0.0000       1.205406        32.8008 
 135   0.0000       1.206395        32.8277 
 136   0.0000       1.227936        33.4138 
 137   0.0000       1.233868        33.5752 
 138   0.0000       1.242097        33.7992 
 139   0.0000       1.274939        34.6928 
 140   0.0000       1.278852        34.7993 
 141   0.0000       1.286719        35.0134 
 142   0.0000       1.288257        35.0553 
 143   0.0000       1.302524        35.4435 
 144   0.0000       1.370352        37.2892 
 145   0.0000       1.386994        37.7420 
 146   0.0000       1.401081        38.1254 
 147   0.0000       1.427004        38.8307 
 148   0.0000       1.435325        39.0572 
 149   0.0000       1.448127        39.4056 
 150   0.0000       1.449627        39.4464 
 151   0.0000       1.469047        39.9748 
 152   0.0000       1.480653        40.2906 
 153   0.0000       1.502023        40.8721 
 154   0.0000       1.517086        41.2820 
 155   0.0000       1.534618        41.7591 
 156   0.0000       1.561349        42.4865 
 157   0.0000       1.563311        42.5398 
 158   0.0000       1.584899        43.1273 
 159   0.0000       1.602678        43.6111 
 160   0.0000       1.614678        43.9376 
 161   0.0000       1.626473        44.2586 
 162   0.0000       1.633091        44.4387 
 163   0.0000       1.662388        45.2359 
 164   0.0000       1.676713        45.6257 
 165   0.0000       1.689742        45.9802 
 166   0.0000       1.692132        46.0453 
 167   0.0000       1.696413        46.1618 
 168   0.0000       1.706767        46.4435 
 169   0.0000       1.711303        46.5669 
 170   0.0000       1.712840        46.6087 
 171   0.0000       1.750834        47.6426 
 172   0.0000       1.773070        48.2477 
 173   0.0000       1.782535        48.5053 
 174   0.0000       1.808122        49.2015 
 175   0.0000       1.827657        49.7331 
 176   0.0000       1.853076        50.4248 
 177   0.0000       1.892022        51.4845 
 178   0.0000       1.903561        51.7985 
 179   0.0000       1.916958        52.1631 
 180   0.0000       1.948730        53.0276 
 181   0.0000       1.973486        53.7013 
 182   0.0000       1.981500        53.9194 
 183   0.0000       1.984614        54.0041 
 184   0.0000       2.032408        55.3046 
 185   0.0000       2.069839        56.3232 
 186   0.0000       2.080400        56.6106 
 187   0.0000       2.121359        57.7251 
 188   0.0000       2.140829        58.2549 
 189   0.0000       2.145599        58.3847 
 190   0.0000       2.155021        58.6411 
 191   0.0000       2.175286        59.1925 
 192   0.0000       2.191249        59.6269 
 193   0.0000       2.209727        60.1297 
 194   0.0000       2.213449        60.2310 
 195   0.0000       2.237531        60.8863 
 196   0.0000       2.243163        61.0396 
 197   0.0000       2.269078        61.7448 
 198   0.0000       2.305057        62.7238 
 199   0.0000       2.322335        63.1939 
 200   0.0000       2.346598        63.8542 
 201   0.0000       2.357013        64.1376 
 202   0.0000       2.395148        65.1753 
 203   0.0000       2.428876        66.0931 
 204   0.0000       2.439966        66.3948 
 205   0.0000       2.456077        66.8333 
 206   0.0000       2.473973        67.3202 
 207   0.0000       2.478127        67.4333 
 208   0.0000       2.501231        68.0620 
 209   0.0000       2.517171        68.4957 
 210   0.0000       2.520570        68.5882 
 211   0.0000       2.537283        69.0430 
 212   0.0000       2.552410        69.4546 
 213   0.0000       2.580799        70.2271 
 214   0.0000       2.608206        70.9729 
 215   0.0000       2.617451        71.2245 
 216   0.0000       2.627791        71.5058 
 217   0.0000       2.646782        72.0226 
 218   0.0000       2.653324        72.2006 
 219   0.0000       2.663376        72.4741 
 220   0.0000       2.664067        72.4929 
 221   0.0000       2.670646        72.6720 
 222   0.0000       2.677069        72.8468 
 223   0.0000       2.682508        72.9947 
 224   0.0000       2.696160        73.3662 
 225   0.0000       2.707090        73.6637 
 226   0.0000       2.737429        74.4892 
 227   0.0000       2.763270        75.1924 
 228   0.0000       2.765362        75.2493 
 229   0.0000       2.777475        75.5789 
 230   0.0000       2.781208        75.6805 
 231   0.0000       2.788597        75.8816 
 232   0.0000       2.821874        76.7871 
 233   0.0000       2.825978        76.8988 
 234   0.0000       2.846539        77.4583 
 235   0.0000       2.853878        77.6580 
 236   0.0000       2.858611        77.7867 
 237   0.0000       2.907024        79.1042 
 238   0.0000       2.910571        79.2007 
 239   0.0000       2.940177        80.0063 
 240   0.0000       2.945531        80.1520 
 241   0.0000       2.978654        81.0533 
 242   0.0000       2.993395        81.4544 
 243   0.0000       3.015546        82.0572 
 244   0.0000       3.039028        82.6962 
 245   0.0000       3.060627        83.2839 
 246   0.0000       3.070066        83.5408 
 247   0.0000       3.096808        84.2684 
 248   0.0000       3.121233        84.9331 
 249   0.0000       3.122954        84.9799 
 250   0.0000       3.130653        85.1894 
 251   0.0000       3.138610        85.4059 
 252   0.0000       3.145831        85.6024 
 253   0.0000       3.162515        86.0564 
 254   0.0000       3.165449        86.1362 
 255   0.0000       3.193298        86.8940 
 256   0.0000       3.200525        87.0907 
 257   0.0000       3.216984        87.5386 
 258   0.0000       3.231008        87.9202 
 259   0.0000       3.251107        88.4671 
 260   0.0000       3.261569        88.7518 
 261   0.0000       3.270775        89.0023 
 262   0.0000       3.298645        89.7607 
 263   0.0000       3.318047        90.2887 
 264   0.0000       3.324825        90.4731 
 265   0.0000       3.355904        91.3188 
 266   0.0000       3.364071        91.5410 
 267   0.0000       3.376758        91.8863 
 268   0.0000       3.392478        92.3140 
 269   0.0000       3.417607        92.9978 
 270   0.0000       3.430537        93.3497 
 271   0.0000       3.434093        93.4464 
 272   0.0000       3.467318        94.3505 
 273   0.0000       3.475791        94.5811 
 274   0.0000       3.487273        94.8935 
 275   0.0000       3.511927        95.5644 
 276   0.0000       3.526325        95.9562 
 277   0.0000       3.541553        96.3706 
 278   0.0000       3.571787        97.1933 
 279   0.0000       3.580402        97.4277 
 280   0.0000       3.633601        98.8753 
 281   0.0000       3.636866        98.9642 
 282   0.0000       3.662264        99.6553 
 283   0.0000       3.684541       100.2615 
 284   0.0000       3.695086       100.5484 
 285   0.0000       3.744507       101.8932 
 286   0.0000       3.757083       102.2354 
 287   0.0000       3.776185       102.7552 
 288   0.0000       3.787792       103.0711 
 289   0.0000       3.820906       103.9721 
 290   0.0000       3.851124       104.7944 
 291   0.0000       3.880328       105.5891 
 292   0.0000       3.897377       106.0530 
 293   0.0000       3.926111       106.8349 
 294   0.0000       3.943664       107.3125 
 295   0.0000       4.002985       108.9268 
 296   0.0000       4.033823       109.7659 
 297   0.0000       4.048718       110.1712 
 298   0.0000       4.065665       110.6324 
 299   0.0000       4.119136       112.0874 
 300   0.0000       4.148198       112.8782 
 301   0.0000       4.159750       113.1926 
 302   0.0000       4.189144       113.9924 
 303   0.0000       4.203991       114.3964 
 304   0.0000       4.218835       114.8003 
 305   0.0000       4.226632       115.0125 
 306   0.0000       4.243606       115.4744 
 307   0.0000       4.256367       115.8216 
 308   0.0000       4.303272       117.0980 
 309   0.0000       4.322757       117.6282 
 310   0.0000       4.346811       118.2827 
 311   0.0000       4.359402       118.6254 
 312   0.0000       4.407831       119.9432 
 313   0.0000       4.485468       122.0558 
 314   0.0000       4.508227       122.6751 
 315   0.0000       4.580391       124.6388 
 316   0.0000       4.595912       125.0611 
 317   0.0000       4.618141       125.6660 
 318   0.0000       4.643759       126.3631 
 319   0.0000       4.683560       127.4461 
 320   0.0000       4.694367       127.7402 
 321   0.0000       4.711740       128.2130 
 322   0.0000       4.739722       128.9744 
 323   0.0000       4.754749       129.3833 
 324   0.0000       4.766328       129.6984 
 325   0.0000       4.837195       131.6268 
 326   0.0000       4.870382       132.5298 
 327   0.0000       4.887539       132.9967 
 328   0.0000       4.916760       133.7919 
 329   0.0000       4.958660       134.9320 
 330   0.0000       4.963267       135.0574 
 331   0.0000       5.094868       138.6384 
 332   0.0000       5.130269       139.6017 
 333   0.0000       5.242736       142.6621 
 334   0.0000       5.248635       142.8226 
 335   0.0000       5.253021       142.9420 
 336   0.0000       5.278175       143.6264 
 337   0.0000       5.390759       146.6900 
 338   0.0000       5.406162       147.1091 
 339   0.0000       5.487391       149.3195 
 340   0.0000       5.648097       153.6925 
 341   0.0000       5.659904       154.0138 
 342   0.0000      22.011303       598.9580 
 343   0.0000      22.286339       606.4421 
 344   0.0000      22.477129       611.6338 
 345   0.0000      22.640827       616.0882 
 346   0.0000      22.642435       616.1320 
 347   0.0000      22.745765       618.9437 
 348   0.0000      22.841551       621.5502 
 349   0.0000      23.242989       632.4739 
 350   0.0000      31.726117       863.3115 

                    ********************************
                    * MULLIKEN POPULATION ANALYSIS *
                    ********************************

-----------------------
MULLIKEN ATOMIC CHARGES
-----------------------
   0 N :   -0.301386
   1 C :   -0.135877
   2 H :    0.336029
   3 H :    0.342719
   4 H :    0.335139
   5 C :   -0.246234
   6 H :    0.208064
   7 H :    0.206205
   8 C :   -0.322428
   9 H :    0.171208
  10 H :    0.176238
  11 C :   -0.264121
  12 C :   -0.102598
  13 C :    0.221655
  14 C :   -0.254442
  15 C :   -0.100681
  16 H :    0.135775
  17 H :    0.152454
  18 H :    0.133979
  19 H :    0.155573
  20 H :    0.152731
Sum of atomic charges:    1.0000000

--------------------------------
MULLIKEN REDUCED ORBITAL CHARGES
--------------------------------
  0 N s       :     3.425742  s :     3.425742
      pz      :     1.284202  p :     3.824291
      px      :     1.284188
      py      :     1.255900
      dz2     :     0.003854  d :     0.049242
      dxz     :     0.007743
      dyz     :     0.017001
      dx2y2   :     0.006755
      dxy     :     0.013889
      f0      :     0.000280  f :     0.002112
      f+1     :     0.000123
      f-1     :     0.000358
      f+2     :     0.000584
      f-2     :     0.000066
      f+3     :     0.000366
      f-3     :     0.000335
  1 C s       :     3.196614  s :     3.196614
      pz      :     0.933799  p :     2.844449
      px      :     0.915924
      py      :     0.994725
      dz2     :     0.004814  d :     0.087442
      dxz     :     0.021211
      dyz     :     0.006030
      dx2y2   :     0.030445
      dxy     :     0.024944
      f0      :     0.001558  f :     0.007373
      f+1     :     0.000592
      f-1     :     0.000679
      f+2     :     0.000312
      f-2     :     0.001063
      f+3     :     0.002177
      f-3     :     0.000991
  2 H s       :     0.632298  s :     0.632298
      pz      :     0.008218  p :     0.031673
      px      :     0.015261
      py      :     0.008194
  3 H s       :     0.625906  s :     0.625906
      pz      :     0.015955  p :     0.031375
      px      :     0.006175
      py      :     0.009244
  4 H s       :     0.633186  s :     0.633186
      pz      :     0.011083  p :     0.031675
      px      :     0.013625
      py      :     0.006968
  5 C s       :     3.286966  s :     3.286966
      pz      :     1.016888  p :     2.848415
      px      :     1.160653
      py      :     0.670874
      dz2     :     0.017116  d :     0.103453
      dxz     :     0.029996
      dyz     :     0.017882
      dx2y2   :     0.026303
      dxy     :     0.012156
      f0      :     0.001491  f :     0.007401
      f+1     :     0.000612
      f-1     :     0.000953
      f+2     :     0.001568
      f-2     :     0.000388
      f+3     :     0.001162
      f-3     :     0.001227
  6 H s       :     0.770600  s :     0.770600
      pz      :     0.007912  p :     0.021336
      px      :     0.009856
      py      :     0.003568
  7 H s       :     0.772392  s :     0.772392
      pz      :     0.006397  p :     0.021402
      px      :     0.010354
      py      :     0.004652
  8 C s       :     3.229202  s :     3.229202
      pz      :     0.890428  p :     2.993371
      px      :     1.139459
      py      :     0.963484
      dz2     :     0.010782  d :     0.094308
      dxz     :     0.025485
      dyz     :     0.027662
      dx2y2   :     0.009501
      dxy     :     0.020877
      f0      :     0.000923  f :     0.005548
      f+1     :     0.000654
      f-1     :     0.000819
      f+2     :     0.001227
      f-2     :     0.000437
      f+3     :     0.000912
      f-3     :     0.000575
  9 H s       :     0.807060  s :     0.807060
      pz      :     0.006194  p :     0.021732
      px      :     0.010452
      py      :     0.005086
 10 H s       :     0.802141  s :     0.802141
      pz      :     0.007697  p :     0.021621
      px      :     0.009374
      py      :     0.004550
 11 C s       :     3.216928  s :     3.216928
      pz      :     0.989529  p :     2.949363
      px      :     0.963482
      py      :     0.996353
      dz2     :     0.005736  d :     0.090361
      dxz     :     0.008545
      dyz     :     0.020035
      dx2y2   :     0.023118
      dxy     :     0.032928
      f0      :     0.001462  f :     0.007469
      f+1     :     0.000626
      f-1     :     0.000820
      f+2     :     0.000735
      f-2     :     0.000687
      f+3     :     0.002151
      f-3     :     0.000989
 12 C s       :     3.171783  s :     3.171783
      pz      :     0.933672  p :     2.835162
      px      :     0.965807
      py      :     0.935683
      dz2     :     0.005948  d :     0.088180
      dxz     :     0.011268
      dyz     :     0.016478
      dx2y2   :     0.025447
      dxy     :     0.029040
      f0      :     0.001479  f :     0.007473
      f+1     :     0.000644
      f-1     :     0.000816
      f+2     :     0.000994
      f-2     :     0.000389
      f+3     :     0.002124
      f-3     :     0.001026
 13 C s       :     3.100968  s :     3.100968
      pz      :     0.966550  p :     2.529687
      px      :     0.833223
      py      :     0.729914
      dz2     :     0.005586  d :     0.137603
      dxz     :     0.028595
      dyz     :     0.017094
      dx2y2   :     0.037406
      dxy     :     0.048922
      f0      :     0.001650  f :     0.010086
      f+1     :     0.000628
      f-1     :     0.000926
      f+2     :     0.000869
      f-2     :     0.001278
      f+3     :     0.003470
      f-3     :     0.001266
 14 C s       :     3.219343  s :     3.219343
      pz      :     0.985762  p :     2.937071
      px      :     0.945142
      py      :     1.006168
      dz2     :     0.005915  d :     0.090567
      dxz     :     0.011108
      dyz     :     0.017467
      dx2y2   :     0.022157
      dxy     :     0.033920
      f0      :     0.001447  f :     0.007461
      f+1     :     0.000630
      f-1     :     0.000831
      f+2     :     0.000969
      f-2     :     0.000444
      f+3     :     0.002171
      f-3     :     0.000968
 15 C s       :     3.170192  s :     3.170192
      pz      :     0.934002  p :     2.834960
      px      :     0.969578
      py      :     0.931380
      dz2     :     0.005896  d :     0.088064
      dxz     :     0.009243
      dyz     :     0.018380
      dx2y2   :     0.026983
      dxy     :     0.027562
      f0      :     0.001490  f :     0.007465
      f+1     :     0.000637
      f-1     :     0.000806
      f+2     :     0.000760
      f-2     :     0.000620
      f+3     :     0.002164
      f-3     :     0.000988
 16 H s       :     0.842102  s :     0.842102
      pz      :     0.004724  p :     0.022122
      px      :     0.012167
      py      :     0.005232
 17 H s       :     0.825481  s :     0.825481
      pz      :     0.004414  p :     0.022065
      px      :     0.010743
      py      :     0.006908
 18 H s       :     0.843837  s :     0.843837
      pz      :     0.004675  p :     0.022184
      px      :     0.010987
      py      :     0.006522
 19 H s       :     0.822430  s :     0.822430
      pz      :     0.004569  p :     0.021998
      px      :     0.003583
      py      :     0.013846
 20 H s       :     0.825209  s :     0.825209
      pz      :     0.004427  p :     0.022061
      px      :     0.012079
      py      :     0.005555


                     *******************************
                     * LOEWDIN POPULATION ANALYSIS *
                     *******************************

----------------------
LOEWDIN ATOMIC CHARGES
----------------------
   0 N :    0.164834
   1 C :   -0.113735
   2 H :    0.222984
   3 H :    0.221805
   4 H :    0.223095
   5 C :   -0.243871
   6 H :    0.156588
   7 H :    0.155824
   8 C :   -0.224744
   9 H :    0.151945
  10 H :    0.152543
  11 C :   -0.116370
  12 C :   -0.117133
  13 C :   -0.164664
  14 C :   -0.114483
  15 C :   -0.116629
  16 H :    0.148786
  17 H :    0.154311
  18 H :    0.149359
  19 H :    0.155056
  20 H :    0.154498

-------------------------------
LOEWDIN REDUCED ORBITAL CHARGES
-------------------------------
  0 N s       :     2.980438  s :     2.980438
      pz      :     1.219893  p :     3.690297
      px      :     1.221277
      py      :     1.249127
      dz2     :     0.014548  d :     0.155067
      dxz     :     0.023669
      dyz     :     0.047448
      dx2y2   :     0.028547
      dxy     :     0.040855
      f0      :     0.001224  f :     0.009364
      f+1     :     0.000434
      f-1     :     0.001570
      f+2     :     0.001832
      f-2     :     0.000821
      f+3     :     0.002237
      f-3     :     0.001245
  1 C s       :     2.759900  s :     2.759900
      pz      :     0.859869  p :     2.924548
      px      :     1.070313
      py      :     0.994366
      dz2     :     0.025173  d :     0.385020
      dxz     :     0.073947
      dyz     :     0.016691
      dx2y2   :     0.164468
      dxy     :     0.104741
      f0      :     0.003392  f :     0.044267
      f+1     :     0.004613
      f-1     :     0.002826
      f+2     :     0.001819
      f-2     :     0.007457
      f+3     :     0.015886
      f-3     :     0.008275
  2 H s       :     0.678187  s :     0.678187
      pz      :     0.025141  p :     0.098829
      px      :     0.050306
      py      :     0.023383
  3 H s       :     0.678786  s :     0.678786
      pz      :     0.053780  p :     0.099409
      px      :     0.018517
      py      :     0.027112
  4 H s       :     0.678192  s :     0.678192
      pz      :     0.034916  p :     0.098713
      px      :     0.044104
      py      :     0.019693
  5 C s       :     2.801679  s :     2.801679
      pz      :     1.081688  p :     2.964845
      px      :     1.081144
      py      :     0.802013
      dz2     :     0.074559  d :     0.428649
      dxz     :     0.100582
      dyz     :     0.084264
      dx2y2   :     0.111088
      dxy     :     0.058156
      f0      :     0.009545  f :     0.048698
      f+1     :     0.003739
      f-1     :     0.007972
      f+2     :     0.007843
      f-2     :     0.004210
      f+3     :     0.007800
      f-3     :     0.007590
  6 H s       :     0.781373  s :     0.781373
      pz      :     0.022271  p :     0.062039
      px      :     0.029480
      py      :     0.010289
  7 H s       :     0.782067  s :     0.782067
      pz      :     0.018328  p :     0.062109
      px      :     0.030763
      py      :     0.013018
  8 C s       :     2.766109  s :     2.766109
      pz      :     0.995327  p :     3.037120
      px      :     1.032211
      py      :     1.009583
      dz2     :     0.057037  d :     0.382970
      dxz     :     0.092950
      dyz     :     0.102318
      dx2y2   :     0.063688
      dxy     :     0.066977
      f0      :     0.007304  f :     0.038545
      f+1     :     0.003626
      f-1     :     0.006848
      f+2     :     0.005972
      f-2     :     0.004475
      f+3     :     0.006143
      f-3     :     0.004178
  9 H s       :     0.788503  s :     0.788503
      pz      :     0.016586  p :     0.059553
      px      :     0.028646
      py      :     0.014320
 10 H s       :     0.787836  s :     0.787836
      pz      :     0.020104  p :     0.059621
      px      :     0.026430
      py      :     0.013087
 11 C s       :     2.750445  s :     2.750445
      pz      :     0.896241  p :     2.932104
      px      :     0.990510
      py      :     1.045353
      dz2     :     0.028459  d :     0.389736
      dxz     :     0.028523
      dyz     :     0.066123
      dx2y2   :     0.123201
      dxy     :     0.143430
      f0      :     0.003178  f :     0.044086
      f+1     :     0.003365
      f-1     :     0.004180
      f+2     :     0.005301
      f-2     :     0.004628
      f+3     :     0.015094
      f-3     :     0.008339
 12 C s       :     2.759085  s :     2.759085
      pz      :     0.865508  p :     2.926490
      px      :     1.022228
      py      :     1.038754
      dz2     :     0.027976  d :     0.387234
      dxz     :     0.034983
      dyz     :     0.057333
      dx2y2   :     0.112290
      dxy     :     0.154653
      f0      :     0.003257  f :     0.044324
      f+1     :     0.003510
      f-1     :     0.004177
      f+2     :     0.006880
      f-2     :     0.002742
      f+3     :     0.015406
      f-3     :     0.008352
 13 C s       :     2.701080  s :     2.701080
      pz      :     0.867943  p :     2.879080
      px      :     1.065746
      py      :     0.945391
      dz2     :     0.034461  d :     0.525485
      dxz     :     0.090466
      dyz     :     0.063438
      dx2y2   :     0.184240
      dxy     :     0.152881
      f0      :     0.004056  f :     0.059019
      f+1     :     0.004602
      f-1     :     0.004047
      f+2     :     0.005643
      f-2     :     0.008639
      f+3     :     0.022403
      f-3     :     0.009629
 14 C s       :     2.750827  s :     2.750827
      pz      :     0.894107  p :     2.930043
      px      :     0.997383
      py      :     1.038554
      dz2     :     0.028789  d :     0.389548
      dxz     :     0.036879
      dyz     :     0.057405
      dx2y2   :     0.107911
      dxy     :     0.158563
      f0      :     0.003165  f :     0.044064
      f+1     :     0.003546
      f-1     :     0.004037
      f+2     :     0.006938
      f-2     :     0.002981
      f+3     :     0.015137
      f-3     :     0.008261
 15 C s       :     2.759097  s :     2.759097
      pz      :     0.864855  p :     2.926292
      px      :     1.012583
      py      :     1.048854
      dz2     :     0.027631  d :     0.386930
      dxz     :     0.027182
      dyz     :     0.065019
      dx2y2   :     0.129488
      dxy     :     0.137611
      f0      :     0.003277  f :     0.044309
      f+1     :     0.003333
      f-1     :     0.004324
      f+2     :     0.005369
      f-2     :     0.004211
      f+3     :     0.015541
      f-3     :     0.008256
 16 H s       :     0.792259  s :     0.792259
      pz      :     0.014026  p :     0.058955
      px      :     0.030216
      py      :     0.014713
 17 H s       :     0.786370  s :     0.786370
      pz      :     0.012798  p :     0.059319
      px      :     0.027900
      py      :     0.018620
 18 H s       :     0.791613  s :     0.791613
      pz      :     0.013892  p :     0.059028
      px      :     0.027501
      py      :     0.017635
 19 H s       :     0.785580  s :     0.785580
      pz      :     0.013107  p :     0.059364
      px      :     0.010908
      py      :     0.035349
 20 H s       :     0.786193  s :     0.786193
      pz      :     0.012830  p :     0.059310
      px      :     0.031061
      py      :     0.015418


                      *****************************
                      * MAYER POPULATION ANALYSIS *
                      *****************************

  NA   - Mulliken gross atomic population
  ZA   - Total nuclear charge
  QA   - Mulliken gross atomic charge
  VA   - Mayer's total valence
  BVA  - Mayer's bonded valence
  FA   - Mayer's free valence

  ATOM       NA         ZA         QA         VA         BVA        FA
  0 N      7.3014     7.0000    -0.3014     3.4795     3.4795    -0.0000
  1 C      6.1359     6.0000    -0.1359     3.9627     3.9627     0.0000
  2 H      0.6640     1.0000     0.3360     0.8891     0.8891     0.0000
  3 H      0.6573     1.0000     0.3427     0.8817     0.8817     0.0000
  4 H      0.6649     1.0000     0.3351     0.8900     0.8900    -0.0000
  5 C      6.2462     6.0000    -0.2462     3.7274     3.7274     0.0000
  6 H      0.7919     1.0000     0.2081     0.9629     0.9629     0.0000
  7 H      0.7938     1.0000     0.2062     0.9615     0.9615    -0.0000
  8 C      6.3224     6.0000    -0.3224     3.8544     3.8544     0.0000
  9 H      0.8288     1.0000     0.1712     0.9717     0.9717     0.0000
 10 H      0.8238     1.0000     0.1762     0.9677     0.9677     0.0000
 11 C      6.2641     6.0000    -0.2641     4.0206     4.0206     0.0000
 12 C      6.1026     6.0000    -0.1026     3.9529     3.9529     0.0000
 13 C      5.7783     6.0000     0.2217     3.5513     3.5513    -0.0000
 14 C      6.2544     6.0000    -0.2544     4.0324     4.0324    -0.0000
 15 C      6.1007     6.0000    -0.1007     3.9468     3.9468     0.0000
 16 H      0.8642     1.0000     0.1358     0.9686     0.9686    -0.0000
 17 H      0.8475     1.0000     0.1525     0.9658     0.9658     0.0000
 18 H      0.8660     1.0000     0.1340     0.9703     0.9703    -0.0000
 19 H      0.8444     1.0000     0.1556     0.9649     0.9649     0.0000
 20 H      0.8473     1.0000     0.1527     0.9656     0.9656     0.0000

  Mayer bond orders larger than 0.1
B(  0-N ,  2-H ) :   0.8735 B(  0-N ,  3-H ) :   0.8718 B(  0-N ,  4-H ) :   0.8730 
B(  0-N ,  5-C ) :   0.8568 B(  1-C , 12-C ) :   1.4078 B(  1-C , 15-C ) :   1.4096 
B(  1-C , 19-H ) :   0.9678 B(  5-C ,  6-H ) :   0.9586 B(  5-C ,  7-H ) :   0.9579 
B(  5-C ,  8-C ) :   0.9405 B(  8-C ,  9-H ) :   0.9741 B(  8-C , 10-H ) :   0.9740 
B(  8-C , 13-C ) :   0.8858 B( 11-C , 12-C ) :   1.4610 B( 11-C , 13-C ) :   1.3329 
B( 11-C , 16-H ) :   0.9731 B( 12-C , 17-H ) :   0.9696 B( 13-C , 14-C ) :   1.3500 
B( 14-C , 15-C ) :   1.4543 B( 14-C , 18-H ) :   0.9743 B( 15-C , 20-H ) :   0.9698 


-------
TIMINGS
-------

Total SCF time: 0 days 0 hours 0 min 42 sec 

Total time                  ....      42.972 sec
Sum of individual times     ....      36.420 sec  ( 84.8%)

Fock matrix formation       ....      27.804 sec  ( 64.7%)
  XC integration            ....       6.548 sec  ( 23.5% of F)
    Basis function eval.    ....       0.050 sec  (  0.8% of XC)
    Density eval.           ....       0.123 sec  (  1.9% of XC)
    XC-Functional eval.     ....       0.034 sec  (  0.5% of XC)
    XC-Potential eval.      ....       0.093 sec  (  1.4% of XC)
Diagonalization             ....       0.850 sec  (  2.0%)
Density matrix formation    ....       1.526 sec  (  3.6%)
Population analysis         ....       0.523 sec  (  1.2%)
Initial guess               ....       0.464 sec  (  1.1%)
Orbital Transformation      ....       0.000 sec  (  0.0%)
Orbital Orthonormalization  ....       0.000 sec  (  0.0%)
DIIS solution               ....       0.660 sec  (  1.5%)
SOSCF solution              ....       1.385 sec  (  3.2%)
Grid generation             ....       3.209 sec  (  7.5%)


-------------------------------------------------------------------------------
                          DFT DISPERSION CORRECTION                            
                                                                               
                              DFTD3 V3.1  Rev 1                                
                              USING zero damping                               
-------------------------------------------------------------------------------
The omegaB97X-D3 functional is recognized. Fit by Chai et al.
Active option DFTDOPT                   ...         3   

molecular C6(AA) [au] = 4046.638322 


            DFT-D V3
 parameters
 s6 scaling factor         :     1.0000 
 rs6 scaling factor        :     1.2810 
 s8 scaling factor         :     1.0000 
 rs8 scaling factor        :     1.0940 
 Damping factor alpha6     :    14.0000 
 Damping factor alpha8     :    16.0000 
 ad hoc parameters k1-k3   :    16.0000     1.3333    -4.0000 

 Edisp/kcal,au: -3.807630714687  -0.006067845134 
 E6   /kcal   :  -1.684139462 
 E8   /kcal   :  -2.123491252 
 % E8         :  55.769359258 

-------------------------   ----------------
Dispersion correction           -0.006067845
-------------------------   ----------------


-------------------------   --------------------
FINAL SINGLE POINT ENERGY      -366.617726979001
-------------------------   --------------------


                            ***************************************
                            *     ORCA property calculations      *
                            ***************************************

                                    ---------------------
                                    Active property flags
                                    ---------------------
   (+) Dipole Moment


------------------------------------------------------------------------------
                       ORCA ELECTRIC PROPERTIES CALCULATION
------------------------------------------------------------------------------

Dipole Moment Calculation                       ... on
Quadrupole Moment Calculation                   ... off
Polarizability Calculation                      ... off
GBWName                                         ... charges.gbw
Electron density file                           ... charges.scfp.tmp
The origin for moment calculation is the CENTER OF MASS  = ( 0.310816, -0.218889  0.364738)

-------------
DIPOLE MOMENT
-------------
                                X             Y             Z
Electronic contribution:     -0.38048       3.62113      -0.47236
Nuclear contribution   :      0.92631      -8.85109       1.42189
                        -----------------------------------------
Total Dipole Moment    :      0.54582      -5.22996       0.94953
                        -----------------------------------------
Magnitude (a.u.)       :      5.34341
Magnitude (Debye)      :     13.58186



--------------------
Rotational spectrum 
--------------------
 
Rotational constants in cm-1:     0.145696     0.028222     0.025318 
Rotational constants in MHz :  4367.851137   846.077958   759.002082 

 Dipole components along the rotational axes: 
x,y,z [a.u.] :    -5.325665     0.018233     0.434694 
x,y,z [Debye]:   -13.536764     0.046344     1.104905 

 
------------------------------------------------------------------------------
                      ORCA CHELPG CHARGES GENERATION
------------------------------------------------------------------------------

GBW file                           ... charges.gbw

Reading the GBW file               ... done

Grid spacing                       ...     0.300000
Point Cut-Off                      ...     2.800000
Van-der-Waals Radii                ...        COSMO
Total charge                       ...            1


Number of points X direction       ...           33
Number of points Y direction       ...           45
Number of points Z direction       ...           27
Maximum number of possible points  ...        40095
Final number of points             ...        13210


CHELPG Charges            
--------------------------------
  0   N   :      -0.508830
  1   C   :      -0.122297
  2   H   :       0.365620
  3   H   :       0.370380
  4   H   :       0.363083
  5   C   :       0.196130
  6   H   :       0.068744
  7   H   :       0.066891
  8   C   :      -0.404379
  9   H   :       0.140850
 10   H   :       0.143988
 11   C   :      -0.296766
 12   C   :      -0.090582
 13   C   :       0.291934
 14   C   :      -0.276809
 15   C   :      -0.098079
 16   H   :       0.167358
 17   H   :       0.153501
 18   H   :       0.161085
 19   H   :       0.152655
 20   H   :       0.155524
--------------------------------
Total charge:     1.000000
--------------------------------

CHELPG charges calculated...

Timings for individual parts in CHELPG calculation:
Grid generation                 ...        0.003 sec (=   0.000 min)
Potential calculation           ...       10.887 sec (=   0.181 min)
Fit to the potential            ...        0.097 sec (=   0.002 min)
------------------------------------------------------------------------------


Timings for individual modules:

Sum of individual times         ...       65.306 sec (=   1.088 min)
GTO integral calculation        ...        5.596 sec (=   0.093 min)   8.6 %
SCF iterations                  ...       47.647 sec (=   0.794 min)  73.0 %
CHELPG charge generation        ...       12.063 sec (=   0.201 min)  18.5 %
                             ****ORCA TERMINATED NORMALLY****
TOTAL RUN TIME: 0 days 0 hours 1 minutes 10 seconds 214 msec
