ITEM: TIMESTEP
10000
ITEM: NUMBER OF ATOMS
656
ITEM: BOX BOUNDS pp pp pp
-3.2000000000000002e+00 2.2400000000000002e+01
-4.3779677730546460e+01 4.3779677730546460e+01
-3.2000000000000002e+00 2.2400000000000002e+01
ITEM: ATOMS id type x y z 
1 10 16.7755 -0.435811 15.6274 
2 4 19.8391 -0.182526 15.8719 
3 4 17.1123 -3.41691 14.8472 
4 4 16.4089 -0.583347 18.7352 
5 4 16.6219 2.64318 15.3102 
6 9 20.5796 -2.65818 18.6673 
7 5 19.7311 -7.59091 18.3203 
8 3 21.0959 -2.82764 17.7903 
9 3 21.1871 -2.96793 19.4436 
10 3 20.5082 -1.6316 18.7518 
11 8 19.2139 -3.33778 18.6765 
12 2 18.672 -3.06833 19.5927 
13 2 18.6445 -2.9591 17.822 
14 6 19.1907 -5.6449 19.6853 
15 5 19.3848 -7.03089 19.5649 
16 7 19.3587 -4.82685 18.5587 
17 6 19.7485 -5.37047 17.3301 
18 5 19.9274 -6.75815 17.2046 
19 1 18.9087 -5.19695 20.6395 
20 1 19.2606 -7.66961 20.4352 
21 1 19.9022 -4.71749 16.4679 
22 1 19.8799 -8.66274 18.233 
23 1 20.2252 -7.17011 16.2433 
24 9 20.3148 2.04012 19.1662 
25 5 19.4147 6.95167 19.9434 
26 3 20.1828 2.10443 20.1931 
27 3 21.3113 2.26507 18.9896 
28 3 20.2059 1.04526 18.9105 
29 8 19.3559 2.93802 18.3827 
30 2 19.6045 2.89177 17.316 
31 2 18.3433 2.52862 18.4971 
32 6 20.6095 4.96796 19.1977 
33 5 20.6202 6.25237 19.7573 
34 7 19.388 4.36797 18.8539 
35 6 18.1818 5.05221 19.0503 
36 5 18.1971 6.34023 19.6045 
37 1 21.5456 4.42691 19.0576 
38 1 21.5673 6.69177 20.0539 
39 1 17.2373 4.5592 18.817 
40 1 19.4218 7.94941 20.3716 
41 1 17.258 6.85205 19.7899 
42 10 16.8174 -0.437399 22.1151 
43 4 19.9652 -0.638201 21.8156 
44 4 16.2734 -3.40211 22.3371 
45 4 16.9686 -0.200507 -0.381359 
46 4 16.6682 2.54233 21.8146 
47 9 19.6644 -2.62118 0.761308 
48 5 21.9628 -6.77422 -0.789217 
49 3 20.6955 -2.51112 0.792985 
50 3 19.3854 -2.99741 1.68189 
51 3 19.2581 -1.67883 0.711363 
52 8 19.1979 -3.49796 -0.38724 
53 2 18.1364 -3.73456 -0.257263 
54 2 19.2733 -2.90238 -1.3044 
55 6 20.4581 -5.48214 0.610715 
56 5 21.4288 -6.48893 0.480534 
57 7 20.0455 -4.74159 -0.514541 
58 6 20.5974 -5.01404 -1.76931 
59 5 21.5485 -6.03229 -1.91171 
60 1 20.102 -5.20584 1.60272 
61 1 21.8216 -6.98105 1.36641 
62 1 20.3506 -4.36923 -2.61534 
63 1 -2.85094 -7.51557 -0.894436 
64 1 22.0296 -6.19209 -2.87427 
65 9 20.2708 2.04472 0.0313931 
66 5 20.2002 7.20025 -0.642979 
67 3 19.9991 2.28085 1.00483 
68 3 21.3038 2.11744 -0.00229365 
69 3 20.0386 1.04399 -0.0809667 
70 8 19.5712 2.92895 -1.00188 
71 2 19.8259 2.56161 -2.00392 
72 2 18.4939 2.77953 -0.884599 
73 6 19.8819 5.21359 -2.02496 
74 5 20.0681 6.60399 -1.9128 
75 7 19.8501 4.4115 -0.87378 
76 6 20.015 5.00336 0.387386 
77 5 20.1715 6.39208 0.508787 
78 1 19.766 4.73956 -3.00093 
79 1 20.1143 7.21054 -2.81039 
80 1 19.9997 4.38518 1.28453 
81 1 20.3289 8.27458 -0.552931 
82 1 20.2738 6.82418 1.50068 
83 10 16.7454 0.102185 2.91033 
84 4 19.8921 -0.091502 3.14376 
85 4 16.5381 -2.96275 2.67518 
86 4 16.2418 0.345604 5.92938 
87 4 16.998 2.99628 2.26187 
88 9 20.4913 -2.27356 6.31959 
89 5 19.3736 -7.33002 6.58713 
90 3 21.4592 -2.59298 6.13499 
91 3 20.3728 -2.29989 7.34612 
92 3 20.4651 -1.27834 6.03479 
93 8 19.4345 -3.11181 5.60523 
94 2 18.4562 -2.64447 5.7904 
95 2 19.6104 -3.05813 4.52992 
96 6 18.1958 -5.27024 6.01195 
97 5 18.1727 -6.63736 6.33698 
98 7 19.4157 -4.57757 5.99333 
99 6 20.6155 -5.26846 6.26884 
100 5 20.5984 -6.64073 6.54305 
101 1 17.2727 -4.73029 5.79323 
102 1 17.2212 -7.15722 6.38133 
103 1 21.5644 -4.73243 6.23239 
104 1 19.35 -8.3904 6.82156 
105 1 21.5324 -7.16514 6.72184 
106 9 21.0117 2.55202 5.8368 
107 5 18.5981 6.75875 7.64518 
108 3 21.0589 2.40697 6.86043 
109 3 21.8706 3.05152 5.55937 
110 3 21.0945 1.62244 5.39416 
111 8 19.7234 3.23192 5.37723 
112 2 19.806 3.4141 4.29893 
113 2 18.9142 2.50012 5.49879 
114 6 20.3241 5.27589 6.79129 
115 5 19.9518 6.40832 7.53434 
116 7 19.352 4.4982 6.13551 
117 6 18.0013 4.85352 6.24343 
118 5 17.6221 5.95954 7.02551 
119 1 21.3691 4.98031 6.75982 
120 1 20.7163 6.97664 8.05756 
121 1 17.2394 4.20916 5.7959 
122 1 18.2991 7.59808 8.26486 
123 1 16.5666 6.15265 7.19175 
124 10 16.81 0.227414 9.06895 
125 4 19.8547 0.299277 8.68651 
126 4 16.7307 -2.89821 8.97901 
127 4 17.1275 -0.064618 12.1532 
128 4 16.1099 3.11955 9.34866 
129 9 20.2073 -2.37662 12.8748 
130 5 21.6491 -6.97386 11.3149 
131 3 21.2424 -2.38685 12.8552 
132 3 19.9413 -2.7213 13.8147 
133 3 19.9088 -1.38672 12.8527 
134 8 19.5874 -3.19616 11.7449 
135 2 18.5038 -3.24073 11.8737 
136 2 19.7641 -2.64594 10.811 
137 6 20.6939 -5.25735 12.7576 
138 5 21.4586 -6.43072 12.5992 
139 7 20.1864 -4.58314 11.6341 
140 6 20.3442 -5.14422 10.3604 
141 5 21.0687 -6.33859 10.2029 
142 1 20.554 -4.83762 13.7527 
143 1 21.9201 -6.8866 13.4724 
144 1 19.9557 -4.61051 9.4897 
145 1 22.2683 -7.85437 11.1782 
146 1 21.238 -6.71915 9.20059 
147 9 19.7335 2.57174 13.4456 
148 5 21.5021 6.94196 11.3997 
149 3 19.3934 3.2406 14.1536 
150 3 20.7023 2.32429 13.7081 
151 3 19.1593 1.72185 13.5803 
152 8 19.6127 3.09957 12.0209 
153 2 20.09 2.37665 11.3508 
154 2 18.5512 3.12146 11.7528 
155 6 21.6333 4.56826 11.8934 
156 5 22.27 5.79973 11.6694 
157 7 20.2415 4.45733 11.8263 
158 6 19.4652 5.58084 11.5167 
159 5 20.1028 6.82553 11.3127 
160 1 22.2425 3.68456 12.0827 
161 1 -2.24344 5.84002 11.6648 
162 1 18.384 5.48364 11.4174 
163 1 21.9942 7.89012 11.2081 
164 1 19.5027 7.69625 11.0681 
165 10 -2.44433 0.108167 15.6442 
166 4 0.733952 0.0139396 15.3312 
167 4 -2.75154 -2.9847 15.4492 
168 4 -2.25932 -0.0790291 18.707 
169 4 -2.88253 3.11087 15.7721 
170 9 0.894868 -2.48791 19.3989 
171 5 0.786044 -7.52612 18.5529 
172 3 1.92734 -2.51309 19.4427 
173 3 0.555463 -2.88088 20.2967 
174 3 0.616578 -1.49314 19.419 
175 8 0.32284 -3.23292 18.1892 
176 2 -0.74692 -3.01623 18.1537 
177 2 0.768639 -2.84343 17.2678 
178 6 -0.636037 -5.5725 18.2285 
179 5 -0.489567 -6.96557 18.3736 
180 7 0.491021 -4.73602 18.2864 
181 6 1.75747 -5.29335 18.497 
182 5 1.91066 -6.68774 18.6146 
183 1 -1.62653 -5.13157 18.1002 
184 1 -1.36802 -7.60377 18.3458 
185 1 2.6255 -4.63648 18.5514 
186 1 0.894314 -8.60109 18.6572 
187 1 2.90105 -7.10883 18.7554 
188 9 0.440684 2.30675 19.6833 
189 5 0.359556 7.3711 18.7056 
190 3 -0.542817 2.32847 19.9981 
191 3 1.00837 2.683 20.4629 
192 3 0.698556 1.30892 19.6022 
193 8 0.643956 3.06457 18.3666 
194 2 1.64207 2.8093 18.0027 
195 2 -0.0612974 2.67753 17.6215 
196 6 1.67756 5.37193 18.3273 
197 5 1.59958 6.76657 18.4406 
198 7 0.531258 4.57298 18.4868 
199 6 -0.708875 5.17787 18.7469 
200 5 -0.798646 6.57794 18.8365 
201 1 2.62874 4.88872 18.1149 
202 1 2.49287 7.37507 18.3212 
203 1 -1.59562 4.55166 18.862 
204 1 0.291011 8.45055 18.8024 
205 1 -1.76061 7.04366 19.0267 
206 10 -2.52536 -0.378742 22.1989 
207 4 0.605757 -0.1761 22.3953 
208 4 -2.23539 -3.28453 21.427 
209 4 -2.74258 -0.502917 -0.254112 
210 4 -2.79512 2.69005 21.8933 
211 9 1.50625 -2.60752 -0.50602 
212 5 0.352338 -7.5787 -0.899938 
213 3 1.86339 -2.59927 -1.47912 
214 3 2.2351 -3.058 0.0695625 
215 3 1.47011 -1.61509 -0.21667 
216 8 0.14434 -3.28976 -0.378679 
217 2 -0.298153 -3.03743 0.593024 
218 2 -0.518781 -2.87678 -1.146 
219 6 0.0323966 -5.6366 0.543721 
220 5 0.0829941 -7.03196 0.368657 
221 7 0.249201 -4.78981 -0.55323 
222 6 0.545818 -5.33557 -1.81468 
223 5 0.600158 -6.72447 -1.99384 
224 1 -0.220733 -5.20592 1.51376 
225 1 -0.127895 -7.68383 1.21179 
226 1 0.698565 -4.67077 -2.66788 
227 1 0.365254 -8.6566 -1.04122 
228 1 0.812872 -7.12471 -2.9825 
229 9 1.30676 2.29165 -0.136441 
230 5 -0.500309 7.06305 0.800636 
231 3 1.26393 2.2744 0.899733 
232 3 2.24672 2.64009 -0.401448 
233 3 1.30016 1.30735 -0.456294 
234 8 0.173555 3.08851 -0.784773 
235 2 0.326981 3.10893 -1.87114 
236 2 -0.751769 2.51769 -0.624876 
237 6 1.0364 5.23109 0.336431 
238 5 0.788738 6.50998 0.855363 
239 7 -0.00760965 4.49018 -0.250209 
240 6 -1.29143 5.03228 -0.288368 
241 5 -1.54123 6.30381 0.234055 
242 1 2.03255 4.79735 0.402604 
243 1 1.60216 7.05926 1.3201 
244 1 -2.10625 4.43658 -0.699419 
245 1 -0.700918 8.0418 1.22606 
246 1 -2.55664 6.68703 0.223859 
247 10 -2.32639 -0.334847 2.83568 
248 4 0.73051 -0.367517 2.55197 
249 4 -2.83599 -3.37677 3.12064 
250 4 -2.13372 -0.107809 5.87408 
251 4 -2.71307 2.67755 2.60761 
252 9 0.539759 -2.57503 7.05512 
253 5 2.43088 -6.80065 4.98595 
254 3 1.51894 -2.27277 6.92459 
255 3 0.514839 -3.08354 7.95431 
256 3 -0.0155659 -1.7232 7.22263 
257 8 -0.0144418 -3.36353 5.87066 
258 2 -1.06864 -3.58583 6.06121 
259 2 0.0136443 -2.70586 4.9946 
260 6 1.21293 -5.4709 6.60866 
261 5 2.04663 -6.56098 6.31316 
262 7 0.757667 -4.62535 5.57732 
263 6 1.11593 -4.88507 4.2528 
264 5 1.97901 -5.95239 3.962 
265 1 0.979394 -5.23395 7.64477 
266 1 2.4429 -7.16999 7.12076 
267 1 0.812663 -4.18867 3.4685 
268 1 3.11652 -7.6091 4.75419 
269 1 2.33664 -6.08515 2.94362 
270 9 0.86677 2.27671 6.54164 
271 5 1.26207 7.3136 5.25598 
272 3 0.544204 2.60826 7.46939 
273 3 1.89737 2.30064 6.56455 
274 3 0.607733 1.27497 6.50978 
275 8 0.273953 3.08816 5.37864 
276 2 0.589129 2.61331 4.4385 
277 2 -0.81364 2.9866 5.43686 
278 6 1.941 4.99088 5.59489 
279 5 2.25765 6.36144 5.53541 
280 7 0.627033 4.57384 5.36101 
281 6 -0.36416 5.52644 5.03934 
282 5 -0.0468474 6.89845 4.97453 
283 1 2.72783 4.26368 5.79064 
284 1 3.28444 6.66845 5.71034 
285 1 -1.37469 5.18318 4.81738 
286 1 1.52743 8.36434 5.22941 
287 1 -0.818404 7.61939 4.72313 
288 10 -2.59496 0.137306 9.36818 
289 4 0.713912 -0.00385537 9.58781 
290 4 -2.51523 -2.82329 9.066 
291 4 -2.86679 0.271339 12.439 
292 4 -2.19587 3.01641 8.74868 
293 9 1.48848 -2.42168 12.6357 
294 5 0.032892 -7.33693 12.9858 
295 3 2.34597 -2.87686 12.2792 
296 3 1.56272 -2.40926 13.6649 
297 3 1.53585 -1.43822 12.3251 
298 8 0.212547 -3.09825 12.1435 
299 2 -0.655228 -2.58507 12.5766 
300 2 0.170932 -2.95742 11.0627 
301 6 0.412405 -5.03738 13.7295 
302 5 0.341585 -6.41447 14.0069 
303 7 0.161907 -4.58237 12.4318 
304 6 -0.11216 -5.50174 11.4055 
305 5 -0.17628 -6.88426 11.6743 
306 1 0.604894 -4.32781 14.5359 
307 1 0.510495 -6.75263 15.0275 
308 1 -0.292575 -5.13984 10.3949 
309 1 -0.0223966 -8.39624 13.2146 
310 1 -0.39017 -7.57708 10.8644 
311 9 1.37206 2.21698 12.3838 
312 5 1.00317 7.25786 12.188 
313 3 2.00666 2.39424 13.1842 
314 3 1.9197 2.38159 11.518 
315 3 1.17429 1.20402 12.4018 
316 8 0.0955186 3.04198 12.4506 
317 2 -0.559349 2.7143 11.6412 
318 2 -0.411184 2.80405 13.3933 
319 6 0.817258 5.08099 11.1209 
320 5 1.14596 6.44447 11.0453 
321 7 0.387821 4.52177 12.3393 
322 6 0.259691 5.33006 13.4711 
323 5 0.553061 6.69972 13.3975 
324 1 0.894522 4.44581 10.2371 
325 1 1.49797 6.85583 10.1022 
326 1 -0.0713511 4.88961 14.414 
327 1 1.25013 8.31363 12.1402 
328 1 0.448252 7.31049 14.2887 
329 10 3.78761 0.0204473 15.8594 
330 4 6.8478 -0.0798962 16.108 
331 4 3.82885 -3.04452 15.4782 
332 4 3.60307 0.10098 18.8651 
333 4 3.87302 3.08692 15.509 
334 9 7.74207 -2.36926 19.0455 
335 5 7.17294 -7.44216 19.8408 
336 3 8.68772 -2.55496 18.667 
337 3 7.82679 -2.40539 20.0744 
338 3 7.53422 -1.38478 18.8035 
339 8 6.69575 -3.34298 18.5012 
340 2 5.71414 -2.95624 18.8003 
341 2 6.72764 -3.29507 17.409 
342 6 5.73776 -5.58226 19.2147 
343 5 5.88673 -6.90891 19.6463 
344 7 6.86878 -4.78568 18.9604 
345 6 8.14863 -5.33513 19.1371 
346 5 8.30359 -6.65387 19.5944 
347 1 4.75217 -5.13893 19.1113 
348 1 5.01158 -7.50401 19.8871 
349 1 9.03541 -4.73146 18.9496 
350 1 7.29132 -8.45488 20.2112 
351 1 9.30477 -7.0456 19.7529 
352 9 8.17522 2.46693 18.6607 
353 5 6.13355 6.66057 20.7054 
354 3 8.22854 2.36074 19.6882 
355 3 9.0655 2.8981 18.3609 
356 3 8.1852 1.51285 18.2642 
357 8 6.93318 3.23205 18.229 
358 2 6.99463 3.4175 17.1509 
359 2 6.07739 2.55909 18.3692 
360 6 7.73746 5.31942 19.46 
361 5 7.46046 6.39292 20.317 
362 7 6.67842 4.51082 19.0048 
363 6 5.35894 4.79791 19.3776 
364 5 5.07708 5.87921 20.2265 
365 1 8.76999 5.06351 19.2263 
366 1 8.27737 6.97311 20.7363 
367 1 4.56006 4.11533 19.0839 
368 1 5.93063 7.44197 21.429 
369 1 4.05877 6.02318 20.5845 
370 10 4.03238 0.0657223 21.8983 
371 4 7.13852 0.185042 21.5453 
372 4 3.77707 -3.03938 21.7723 
373 4 4.17473 -0.0562388 -0.474384 
374 4 3.38875 2.9633 22.2301 
375 9 7.33166 -2.29674 0.0165274 
376 5 8.07159 -7.21509 -1.00754 
377 3 8.36625 -2.3626 -0.00546894 
378 3 7.04661 -2.58457 0.971667 
379 3 7.08186 -1.29694 -0.0437279 
380 8 6.64837 -3.13573 -1.06249 
381 2 5.56554 -3.10119 -0.89576 
382 2 6.84495 -2.67845 -2.03683 
383 6 7.33678 -5.23243 0.178648 
384 5 7.86251 -6.53068 0.202714 
385 7 7.10111 -4.57362 -1.04515 
386 6 7.39293 -5.22023 -2.24527 
387 5 7.86179 -6.54327 -2.23073 
388 1 7.15265 -4.71545 1.11885 
389 1 8.07081 -7.00234 1.15987 
390 1 7.25969 -4.68245 -3.1843 
391 1 8.46034 -8.22853 -0.9984 
392 1 8.10495 -7.02446 -3.17205 
393 9 7.11738 2.32829 0.264458 
394 5 6.69871 7.29138 -1.16093 
395 3 6.20827 2.43431 0.753814 
396 3 7.8486 2.68661 0.897835 
397 3 7.27602 1.31126 0.189106 
398 8 7.1568 2.99994 -1.10054 
399 2 8.09429 2.73075 -1.59906 
400 2 6.3498 2.57403 -1.7054 
401 6 8.1087 5.31863 -1.37032 
402 5 7.9467 6.7122 -1.44556 
403 7 7.01886 4.50332 -1.03545 
404 6 5.78236 5.07707 -0.716327 
405 5 5.61898 6.47282 -0.784025 
406 1 9.06878 4.86456 -1.60432 
407 1 8.7904 7.33076 -1.73829 
408 1 4.93241 4.43668 -0.471259 
409 1 6.56977 8.36736 -1.22939 
410 1 4.64027 6.89751 -0.576551 
411 10 3.84757 -0.321951 2.81618 
412 4 6.98751 -0.125824 2.97867 
413 4 4.16075 -3.18069 2.29342 
414 4 3.55673 -0.29142 5.99065 
415 4 3.82242 2.8693 2.73001 
416 9 7.81374 -2.30473 5.8652 
417 5 7.16316 -7.33699 6.2481 
418 3 8.34087 -2.52646 4.99911 
419 3 8.4581 -2.46471 6.65593 
420 3 7.66744 -1.28272 5.83039 
421 8 6.50646 -3.08314 6.00401 
422 2 5.98448 -2.74586 6.90678 
423 2 5.86688 -2.82523 5.1573 
424 6 6.44941 -5.25294 7.26371 
425 5 6.65892 -6.63639 7.36096 
426 7 6.72426 -4.57429 6.06936 
427 6 7.22213 -5.27051 4.95803 
428 5 7.43229 -6.65846 5.04391 
429 1 6.07425 -4.69827 8.12296 
430 1 6.43991 -7.15084 8.29376 
431 1 7.43614 -4.72767 4.03545 
432 1 7.34174 -8.40514 6.31705 
433 1 7.8161 -7.19751 4.18204 
434 9 6.34108 2.07721 6.09898 
435 5 7.46554 6.80636 7.42273 
436 3 5.34923 2.3307 5.94606 
437 3 6.48114 2.07613 7.12445 
438 3 6.43175 1.10182 5.76927 
439 8 7.30807 3.01866 5.38206 
440 2 8.30507 2.56554 5.4197 
441 2 7.02951 3.07673 4.32267 
442 6 8.59488 4.92659 6.37344 
443 5 8.65464 6.12302 7.10532 
444 7 7.35403 4.40089 6.00059 
445 6 6.16681 5.09821 6.28478 
446 5 6.21937 6.30276 7.00837 
447 1 9.50819 4.36471 6.1679 
448 1 9.62167 6.47325 7.4574 
449 1 5.20451 4.66108 6.01881 
450 1 7.51284 7.71574 8.01013 
451 1 5.29589 6.80651 7.28352 
452 10 3.95851 -0.119905 9.25532 
453 4 6.99531 -0.260104 8.95223 
454 4 3.35594 -3.05542 9.42877 
455 4 4.15744 0.147785 12.3835 
456 4 3.63808 2.84759 8.91734 
457 9 6.9655 -2.41738 13.422 
458 5 8.14481 -7.03301 11.5673 
459 3 7.996 -2.41873 13.3329 
460 3 6.7633 -2.75803 14.3809 
461 3 6.653 -1.43388 13.4032 
462 8 6.27258 -3.22979 12.334 
463 2 5.20618 -3.32576 12.5451 
464 2 6.32448 -2.64203 11.4099 
465 6 6.9901 -5.54849 13.1129 
466 5 7.60694 -6.78398 12.8481 
467 7 6.90221 -4.5802 12.0969 
468 6 7.41959 -4.83464 10.823 
469 5 8.05311 -6.0571 10.5594 
470 1 6.61248 -5.31868 14.1086 
471 1 7.70696 -7.52134 13.6416 
472 1 7.34708 -4.06417 10.053 
473 1 8.65515 -7.97032 11.3676 
474 1 8.51374 -6.20606 9.58215 
475 9 7.12739 2.38409 13.4708 
476 5 5.84824 6.80506 11.1362 
477 3 6.09971 2.26495 13.5221 
478 3 7.39957 2.95899 14.284 
479 3 7.5546 1.46079 13.6496 
480 8 7.59767 2.9547 12.1323 
481 2 8.69148 3.01394 12.1794 
482 2 7.34906 2.23345 11.3418 
483 6 7.80873 5.36674 11.3545 
484 5 7.23499 6.60877 11.0116 
485 7 6.99042 4.31521 11.8016 
486 6 5.60382 4.51429 11.915 
487 5 5.0367 5.75552 11.5854 
488 1 8.87574 5.20014 11.2214 
489 1 7.86838 7.40592 10.6352 
490 1 4.94474 3.69308 12.1989 
491 1 5.39557 7.75074 10.8582 
492 1 3.96007 5.8754 11.6606 
493 10 10.593 -0.391061 15.5295 
494 4 13.5741 -0.624026 15.1745 
495 4 9.77821 -3.22453 15.867 
496 4 10.693 -0.189573 18.7144 
497 4 10.1987 2.57572 15.539 
498 9 13.3837 -2.77337 19.8799 
499 5 15.3433 -6.84606 17.7165 
500 3 14.4107 -2.65588 19.8257 
501 3 13.1859 -3.25836 20.7714 
502 3 12.9689 -1.83474 19.9852 
503 8 12.8016 -3.49014 18.6648 
504 2 11.7404 -3.7015 18.8275 
505 2 12.8389 -2.79225 17.8214 
506 6 14.0714 -5.57136 19.3578 
507 5 14.9844 -6.59815 19.0475 
508 7 13.5674 -4.75526 18.3323 
509 6 13.9192 -5.01576 16.9948 
510 5 14.7779 -6.07867 16.6877 
511 1 13.8659 -5.35462 20.4051 
512 1 15.4545 -7.15001 19.8577 
513 1 13.5871 -4.33258 16.2079 
514 1 16.0861 -7.59982 17.4792 
515 1 15.1065 -6.22301 15.6614 
516 9 13.9105 1.99913 19.3239 
517 5 14.3514 7.07358 18.5681 
518 3 13.6405 2.26729 20.2893 
519 3 14.9446 2.04138 19.2855 
520 3 13.6489 1.00248 19.2267 
521 8 13.2549 2.88237 18.2546 
522 2 13.5185 2.48324 17.266 
523 2 12.1691 2.78525 18.3548 
524 6 13.8651 5.11078 17.2089 
525 5 14.232 6.46703 17.3042 
526 7 13.6104 4.35633 18.3686 
527 6 13.6906 4.97497 19.6247 
528 5 14.0631 6.33039 19.725 
529 1 13.7996 4.62552 16.2322 
530 1 14.459 7.02833 16.4023 
531 1 13.4985 4.40698 20.5344 
532 1 14.6482 8.11537 18.6526 
533 1 14.1429 6.78377 20.7107 
534 10 10.3601 0.0474679 22.0642 
535 4 13.467 -0.131458 22.3977 
536 4 10.289 -2.9723 21.7268 
537 4 10.0756 0.0999677 -0.543047 
538 4 10.5509 3.04583 21.5778 
539 9 14.0179 -2.42078 -0.0374651 
540 5 13.1458 -7.43626 0.477137 
541 3 14.9845 -2.62419 -0.349246 
542 3 14.0043 -2.55481 0.990073 
543 3 13.8705 -1.41055 -0.199163 
544 8 12.9804 -3.28374 -0.750842 
545 2 11.9802 -2.88534 -0.529724 
546 2 13.119 -3.19201 -1.83206 
547 6 11.8764 -5.45164 -0.162159 
548 5 11.9142 -6.79312 0.256827 
549 7 13.0642 -4.74134 -0.343173 
550 6 14.2996 -5.38274 -0.126661 
551 5 14.3436 -6.72884 0.271905 
552 1 10.9205 -4.95064 -0.322372 
553 1 10.98 -7.31895 0.424438 
554 1 15.23 -4.8372 -0.276089 
555 1 13.1759 -8.46959 0.808226 
556 1 15.3058 -7.21038 0.422896 
557 9 14.5098 2.3367 -0.428651 
558 5 13.8517 7.28788 0.336735 
559 3 14.5839 2.44603 0.597644 
560 3 15.4484 2.54857 -0.809612 
561 3 14.3481 1.33312 -0.611299 
562 8 13.4068 3.20948 -1.02458 
563 2 13.447 3.1274 -2.11672 
564 2 12.4391 2.80072 -0.703846 
565 6 14.8007 5.29112 -0.674142 
566 5 14.95 6.60858 -0.219692 
567 7 13.553 4.65243 -0.591924 
568 6 12.4529 5.3421 -0.0553523 
569 5 12.6026 6.64571 0.430023 
570 1 15.6641 4.7518 -1.06346 
571 1 15.9288 7.07884 -0.264786 
572 1 11.4901 4.84232 0.00208797 
573 1 13.9754 8.29714 0.716893 
574 1 11.7521 7.14696 0.88358 
575 10 10.5697 0.139882 2.64979 
576 4 13.6089 0.219189 2.46828 
577 4 10.2225 -2.96172 2.50734 
578 4 10.5718 -0.0120276 5.74158 
579 4 10.1862 3.17555 2.58583 
580 9 13.6032 -2.2936 6.54309 
581 5 13.9778 -7.41579 5.63486 
582 3 14.6328 -2.30513 6.66803 
583 3 13.1829 -2.552 7.45409 
584 3 13.3411 -1.29943 6.40727 
585 8 13.1114 -3.17692 5.37965 
586 2 12.0232 -3.0714 5.34943 
587 2 13.4983 -2.7592 4.44208 
588 6 13.4437 -5.30644 6.7188 
589 5 13.7309 -6.67625 6.80657 
590 7 13.43 -4.66246 5.47287 
591 6 13.6748 -5.40074 4.30348 
592 5 13.9523 -6.77776 4.38218 
593 1 13.2345 -4.7453 7.62729 
594 1 13.7499 -7.15892 7.77979 
595 1 13.6564 -4.89102 3.33836 
596 1 14.1899 -8.47733 5.70823 
597 1 14.1504 -7.32936 3.46867 
598 9 13.2563 2.58014 7.1465 
599 5 14.5952 6.93395 4.76634 
600 3 13.1644 3.18486 7.97849 
601 3 14.2452 2.28304 7.09939 
602 3 12.6938 1.74191 7.36045 
603 8 12.7613 3.20285 5.85228 
604 2 12.942 2.48177 5.04483 
605 2 11.6751 3.32644 5.91738 
606 6 13.8669 4.6838 4.19571 
607 5 14.4677 5.89251 3.82507 
608 7 13.4068 4.51484 5.5067 
609 6 13.5152 5.54825 6.44984 
610 5 14.0966 6.77211 6.07357 
611 1 13.7651 3.86739 3.47571 
612 1 14.8679 5.98334 2.81709 
613 1 13.158 5.39753 7.46672 
614 1 15.0807 7.86201 4.48183 
615 1 14.1809 7.57878 6.79675 
616 10 10.1164 -0.209094 9.38457 
617 4 13.4598 -0.170766 9.43906 
618 4 10.3407 -3.09985 8.83463 
619 4 10.0125 -0.387629 12.4038 
620 4 10.3025 2.79845 9.24678 
621 9 14.6607 -2.81829 12.0617 
622 5 12.1832 -7.00783 13.8127 
623 3 15.5254 -3.37319 11.9459 
624 3 14.6063 -2.57361 13.0656 
625 3 14.8453 -1.94919 11.5324 
626 8 13.3976 -3.50618 11.5372 
627 2 12.5804 -2.7755 11.5811 
628 2 13.5425 -3.72725 10.4715 
629 6 11.6514 -4.87243 12.738 
630 5 11.2656 -5.99156 13.4975 
631 7 12.9814 -4.74819 12.3171 
632 6 13.9076 -5.76077 12.6484 
633 5 13.5112 -6.89858 13.3734 
634 1 10.9313 -4.0773 12.5316 
635 1 10.2552 -6.02838 13.8971 
636 1 14.9491 -5.64836 12.354 
637 1 11.8763 -7.85224 14.4234 
638 1 14.2397 -7.6637 13.6258 
639 9 14.1819 1.98325 12.591 
640 5 12.7705 6.7716 13.6848 
641 3 14.1959 1.99698 13.6249 
642 3 15.1151 2.30182 12.2714 
643 3 14.1067 0.99015 12.3109 
644 8 13.0555 2.82145 12.0114 
645 2 13.1852 2.87502 10.9305 
646 2 12.1122 2.29612 12.196 
647 6 14.1383 4.9693 12.7845 
648 5 14.0363 6.2479 13.355 
649 7 12.9731 4.21876 12.5659 
650 6 11.7133 4.75784 12.8399 
651 5 11.6028 6.03029 13.4278 
652 1 15.1126 4.54075 12.5508 
653 1 14.9395 6.81704 13.5555 
654 1 10.8214 4.16346 12.6449 
655 1 12.6967 7.75075 14.1448 
656 1 10.6216 6.40771 13.7051 
ITEM: TIMESTEP
11000
ITEM: NUMBER OF ATOMS
656
ITEM: BOX BOUNDS pp pp pp
-3.0595261076369322e+00 2.2259526107636905e+01
-4.3779677730546460e+01 4.3779677730546460e+01
-3.0844566059715319e+00 2.2284456605971570e+01
ITEM: ATOMS id type x y z 
1 10 14.2545 0.000683848 13.1519 
2 4 17.3191 0.130775 13.1746 
3 4 14.5545 -2.96885 12.5046 
4 4 14.4286 -0.141935 16.194 
5 4 13.5326 2.9359 13.3476 
6 9 17.9287 -2.43078 16.119 
7 5 17.1506 -7.60913 15.725 
8 3 17.8574 -2.46232 15.0847 
9 3 18.9229 -2.60942 16.3643 
10 3 17.741 -1.45037 16.3976 
11 8 16.9576 -3.39901 16.811 
12 2 17.0926 -3.2498 17.8882 
13 2 15.9318 -3.0893 16.5931 
14 6 17.2956 -5.86634 17.4284 
15 5 17.3381 -7.22786 17.0585 
16 7 17.1082 -4.87522 16.4444 
17 6 16.9579 -5.27726 15.1123 
18 5 16.9324 -6.63577 14.7412 
19 1 17.3711 -5.57079 18.4732 
20 1 17.4788 -7.98868 17.8196 
21 1 16.8293 -4.52946 14.3348 
22 1 17.1644 -8.65834 15.4482 
23 1 16.775 -6.91165 13.7017 
24 9 17.3688 2.27001 16.665 
25 5 17.6216 7.23255 17.1589 
26 3 16.7913 2.57446 17.4643 
27 3 18.3164 2.12251 17.0611 
28 3 17.0058 1.34717 16.376 
29 8 17.3565 3.26822 15.5091 
30 2 18.2093 3.02896 14.8847 
31 2 16.4519 3.10382 14.9176 
32 6 18.7041 5.24029 16.2885 
33 5 18.7898 6.46834 16.9612 
34 7 17.4485 4.69923 15.9776 
35 6 16.2805 5.43304 16.2233 
36 5 16.3624 6.71826 16.7796 
37 1 19.5922 4.62035 16.1582 
38 1 19.7538 6.81962 17.3222 
39 1 15.3122 4.97035 16.0163 
40 1 17.6783 8.19154 17.6627 
41 1 15.4468 7.2612 16.9946 
42 10 14.3412 0.0636869 19.3963 
43 4 17.3803 -0.0968747 19.375 
44 4 14.0677 -2.9565 19.5284 
45 4 14.3562 0.170875 -3.03051 
46 4 14.355 3.11443 18.994 
47 9 17.705 -2.22909 -3.01596 
48 5 19.0102 -7.06381 -1.80312 
49 3 18.6797 -2.17416 22.0095 
50 3 17.725 -2.11854 -1.98848 
51 3 17.1822 -1.42121 21.9785 
52 8 17.1167 -3.53917 21.9135 
53 2 16.0558 -3.53573 -3.17425 
54 2 17.1771 -3.54804 20.8153 
55 6 17.9875 -4.86615 -1.47852 
56 5 18.5558 -6.03628 -0.950653 
57 7 17.8539 -4.72524 -2.86184 
58 6 18.4349 -5.67044 21.6604 
59 5 18.9956 -6.84877 22.1755 
60 1 17.6443 -4.06343 -0.815492 
61 1 18.6654 -6.12272 0.12936 
62 1 18.4571 -5.47802 20.5904 
63 1 19.4722 -7.95662 -1.39428 
64 1 19.4164 -7.59304 21.5068 
65 9 17.8469 2.35999 -2.14417 
66 5 17.9108 7.32409 -1.43537 
67 3 17.712 2.41747 -1.11999 
68 3 18.8588 2.53508 -2.2849 
69 3 17.6796 1.37487 -2.41196 
70 8 16.9795 3.37546 -2.89571 
71 2 17.1918 3.27782 21.3987 
72 2 15.9247 3.11883 -2.74112 
73 6 17.7117 5.74923 22.0792 
74 5 18.0647 7.01014 -2.80053 
75 7 17.2557 4.77479 -2.39889 
76 6 17.1906 5.0598 -1.01576 
77 5 17.5055 6.33288 -0.527903 
78 1 17.8507 5.47828 21.0283 
79 1 18.4554 7.75134 21.876 
80 1 16.9479 4.26773 -0.313114 
81 1 18.2068 8.30149 -1.06487 
82 1 17.4606 6.53245 0.54161 
83 10 14.3 -0.225174 0.235507 
84 4 17.4355 -0.160018 0.39343 
85 4 14.0859 -3.09698 0.095723 
86 4 14.6516 -0.250692 3.42312 
87 4 14.1272 2.67441 0.350162 
88 9 17.7481 -2.45359 3.75706 
89 5 17.7672 -7.47568 4.51917 
90 3 18.7801 -2.53655 3.6883 
91 3 17.5019 -2.47722 4.76406 
92 3 17.5152 -1.50356 3.41239 
93 8 17.0056 -3.53318 2.94078 
94 2 15.9402 -3.2907 2.97029 
95 2 17.3197 -3.4106 1.89879 
96 6 16.1607 -5.86412 3.65535 
97 5 16.4363 -7.13827 4.19222 
98 7 17.2194 -4.97348 3.36559 
99 6 18.5429 -5.38387 3.56217 
100 5 18.8081 -6.5847 4.2169 
101 1 15.1338 -5.5204 3.52591 
102 1 15.6249 -7.81096 4.46246 
103 1 19.3591 -4.69736 3.33894 
104 1 17.9934 -8.41568 5.01089 
105 1 19.8309 -6.81731 4.50005 
106 9 17.8951 2.43916 3.83269 
107 5 17.5239 7.63371 3.68265 
108 3 17.6764 2.56986 4.84031 
109 3 18.9116 2.60162 3.71727 
110 3 17.7487 1.43224 3.63245 
111 8 17.058 3.33888 2.91241 
112 2 17.3247 3.08454 1.87845 
113 2 16.0121 3.04614 3.04097 
114 6 18.4897 5.40964 3.34592 
115 5 18.6453 6.78554 3.61758 
116 7 17.217 4.84329 3.15802 
117 6 16.0987 5.70607 3.21008 
118 5 16.2537 7.09342 3.44346 
119 1 19.3604 4.75393 3.29805 
120 1 19.633 7.19743 3.79236 
121 1 15.1056 5.2678 3.09401 
122 1 17.6412 8.69271 3.89357 
123 1 15.3762 7.73322 3.50041 
124 10 14.5983 0.0283429 6.45524 
125 4 17.6988 -0.080681 6.70571 
126 4 14.5786 -2.94546 6.43921 
127 4 14.3935 0.337558 9.84304 
128 4 14.7125 3.13582 6.11712 
129 9 17.7554 -2.48023 10.3871 
130 5 18.4712 -7.49364 9.86086 
131 3 18.7439 -2.72089 10.5837 
132 3 17.2682 -2.48548 11.302 
133 3 17.7453 -1.4977 10.0675 
134 8 17.1142 -3.43117 9.3849 
135 2 16.0302 -3.28912 9.43575 
136 2 17.4426 -3.12041 8.3839 
137 6 17.5996 -5.44802 10.8613 
138 5 18.1237 -6.74603 10.9996 
139 7 17.4923 -4.88705 9.57066 
140 6 17.8688 -5.61614 8.43258 
141 5 18.3522 -6.92872 8.57774 
142 1 17.3677 -4.8321 11.733 
143 1 18.2661 -7.16509 11.9897 
144 1 17.8048 -5.16462 7.44189 
145 1 18.9015 -8.4844 9.9693 
146 1 18.7041 -7.4759 7.7054 
147 9 18.101 2.3402 9.69666 
148 5 17.7114 7.05535 11.5769 
149 3 17.8959 2.24166 10.7058 
150 3 19.1218 2.5149 9.6211 
151 3 17.9118 1.41999 9.26596 
152 8 17.2881 3.46282 9.099 
153 2 17.6366 3.64087 8.07233 
154 2 16.2597 3.10357 9.02315 
155 6 18.0394 5.82799 9.48086 
156 5 18.1887 7.01025 10.2446 
157 7 17.3282 4.73196 9.97767 
158 6 16.8104 4.79315 11.2939 
159 5 17.0387 5.93071 12.1162 
160 1 18.4856 5.74399 8.48922 
161 1 18.7438 7.84689 9.82746 
162 1 16.311 3.92244 11.7161 
163 1 17.9063 7.91357 12.2162 
164 1 16.7031 5.9314 13.1526 
165 10 20.4601 0.192277 13.0969 
166 4 -1.70154 -0.0984981 13.0178 
167 4 20.2279 -2.90156 13.1686 
168 4 20.759 0.156692 16.4196 
169 4 20.6005 3.07676 12.7338 
170 9 -1.69256 -2.15369 16.8515 
171 5 -1.44501 -7.31809 17.2098 
172 3 -1.05807 -2.3435 17.6386 
173 3 -2.64705 -2.14555 17.2641 
174 3 -1.49594 -1.19334 16.5276 
175 8 -1.53719 -3.18097 15.7246 
176 2 -2.30488 -2.99809 14.9645 
177 2 -0.570946 -2.963 15.2475 
178 6 -2.69956 -5.29798 16.6502 
179 5 -2.66426 -6.61889 17.1465 
180 7 -1.53345 -4.64397 16.1967 
181 6 -0.334805 -5.35609 16.2451 
182 5 -0.281713 -6.68427 16.7401 
183 1 21.6852 -4.73789 16.6524 
184 1 21.7392 -7.07232 17.5174 
185 1 0.588257 -4.86453 15.9414 
186 1 -1.38167 -8.32442 17.6175 
187 1 0.685822 -7.17545 16.8203 
188 9 -1.52666 2.21033 16.8743 
189 5 -0.647804 6.91583 17.2393 
190 3 -2.39436 2.41167 17.4101 
191 3 -0.722762 2.34344 17.5219 
192 3 -1.55237 1.20767 16.6353 
193 8 -1.39342 3.04404 15.6213 
194 2 -0.536203 2.66748 15.0461 
195 2 -2.29324 2.94191 15.0061 
196 6 0.140239 4.96319 16.0306 
197 5 0.387661 6.21221 16.6026 
198 7 -1.155 4.44299 16.0598 
199 6 -2.18843 5.14754 16.6836 
200 5 -1.94407 6.38685 17.2643 
201 1 0.941027 4.37591 15.5788 
202 1 1.38435 6.63531 16.5721 
203 1 22.144 4.69148 16.7566 
204 1 -0.442643 7.87335 17.7063 
205 1 -2.7326 6.9107 17.7972 
206 10 20.5396 0.131627 19.6185 
207 4 -1.61982 0.149479 19.6986 
208 4 20.4133 -2.80285 19.3066 
209 4 20.5279 -0.0461642 -2.71069 
210 4 20.2814 3.21294 19.3967 
211 9 -0.714293 -2.71901 -2.83717 
212 5 -2.02872 -7.43957 21.813 
213 3 -0.179712 -3.0492 21.7118 
214 3 -0.172139 -2.97808 -1.99655 
215 3 -0.712639 -1.68827 -2.88838 
216 8 -2.1404 -3.22001 -2.78055 
217 2 -2.58306 -2.88246 -1.85194 
218 2 -2.68432 -2.72076 21.7792 
219 6 -2.35429 -5.63671 -1.95781 
220 5 -2.30653 -7.01651 -2.2408 
221 7 -2.17607 -4.69869 -2.98495 
222 6 -1.90769 -5.11186 21.0757 
223 5 -1.83549 -6.47626 20.8091 
224 1 -2.57808 -5.29753 -0.947594 
225 1 -2.51213 -7.74252 -1.45848 
226 1 -1.787 -4.37315 20.2797 
227 1 -2.00012 -8.49503 21.5665 
228 1 -1.61408 -6.78985 19.7987 
229 9 -0.701543 2.46242 -2.60047 
230 5 -1.60171 7.23634 -1.19827 
231 3 -0.649332 2.52026 -1.56779 
232 3 0.238561 2.70316 -2.96067 
233 3 -0.838962 1.46411 -2.841 
234 8 -1.78852 3.37194 -3.16961 
235 2 -1.66208 3.41748 21.1105 
236 2 -2.77623 2.91733 -2.9839 
237 6 -0.444736 5.28318 -2.03642 
238 5 -0.39736 6.52103 -1.37233 
239 7 -1.67098 4.74759 -2.5201 
240 6 -2.86257 5.47461 -2.31802 
241 5 -2.82371 6.70302 -1.64958 
242 1 0.480577 4.73234 -2.17987 
243 1 0.544361 6.91792 -0.998894 
244 1 21.5041 5.04211 -2.62944 
245 1 -1.58266 8.18123 -0.663424 
246 1 21.563 7.21978 -1.45856 
247 10 20.9359 -0.109367 0.324596 
248 4 -1.26474 -0.072504 0.0775412 
249 4 20.7128 -2.99807 0.574414 
250 4 20.7949 0.00225763 3.52257 
251 4 20.5278 3.10608 0.207532 
252 9 -1.44715 -2.68024 4.22364 
253 5 -1.11928 -7.80253 3.26145 
254 3 -0.420834 -2.79858 4.24914 
255 3 -1.77534 -2.90413 5.1824 
256 3 -1.65042 -1.67332 4.08574 
257 8 -2.09186 -3.5852 3.17289 
258 2 22.1554 -3.47009 3.3365 
259 2 -1.81082 -3.18608 2.19152 
260 6 -2.07804 -5.85081 4.35252 
261 5 -1.67987 -7.1918 4.39788 
262 7 -1.77982 -5.06759 3.22954 
263 6 -1.19224 -5.65859 2.10485 
264 5 -0.875134 -7.02423 2.11625 
265 1 -2.55305 -5.39419 5.21712 
266 1 -1.857 -7.77162 5.29829 
267 1 -0.968013 -5.0408 1.237 
268 1 -0.868364 -8.85913 3.275 
269 1 -0.396375 -7.44995 1.23802 
270 9 -1.46678 2.24799 4.21458 
271 5 -0.675351 7.31664 3.87613 
272 3 -2.1092 2.48963 4.99126 
273 3 -0.505387 2.2804 4.59935 
274 3 -1.68 1.25844 3.99833 
275 8 -1.68579 3.15527 3.01173 
276 2 -1.09159 2.77414 2.16882 