ITEM: TIMESTEP
110000
ITEM: NUMBER OF ATOMS
656
ITEM: BOX BOUNDS pp pp pp
-2.5998455542790246e+00 2.1799845554278768e+01
-4.3779677730546460e+01 4.3779677730546460e+01
-2.7902652944662698e+00 2.1990265294465850e+01
ITEM: ATOMS id type x y z 
1 10 14.1319 -0.365168 12.9753 
2 4 17.3326 -0.238803 12.79 
3 4 14.8058 -3.32713 13.1397 
4 4 14.2304 -0.357098 16.1723 
5 4 14.1249 2.73625 13.2943 
6 9 17.5708 -2.74209 15.5541 
7 5 17.8501 -7.75148 16.376 
8 3 17.5452 -3.18447 14.622 
9 3 18.5395 -2.55256 15.808 
10 3 17.1332 -1.80737 15.4012 
11 8 16.9126 -3.65028 16.5698 
12 2 17.2145 -3.326 17.5677 
13 2 15.8399 -3.47798 16.501 
14 6 18.6469 -5.45406 16.4018 
15 5 18.9023 -6.78195 16.4208 
16 7 17.3009 -5.0717 16.4085 
17 6 16.2416 -5.97768 16.3579 
18 5 16.4483 -7.36455 16.2676 
19 1 19.374 -4.67478 16.2424 
20 1 19.9014 -7.08903 16.4037 
21 1 15.272 -5.58592 16.2789 
22 1 17.9931 -8.8495 16.4099 
23 1 15.5744 -8.02395 16.1553 
24 9 16.7469 2.18125 16.6622 
25 5 16.0022 7.02666 15.7796 
26 3 16.7246 2.49406 17.6377 
27 3 17.0151 1.16677 16.5462 
28 3 15.8337 2.32341 16.2058 
29 8 17.7331 3.06365 15.8987 
30 2 18.6445 2.98223 16.2512 
31 2 17.6314 2.65491 14.8898 
32 6 17.0369 5.16154 14.6656 
33 5 16.3128 6.34453 14.5939 
34 7 17.3218 4.53943 15.8797 
35 6 17.1494 5.31164 17.0277 
36 5 16.5043 6.56771 17.0084 
37 1 17.2609 4.56938 13.7164 
38 1 15.9272 6.66376 13.68 
39 1 17.4766 4.84119 17.9979 
40 1 15.4277 7.93243 15.6308 
41 1 16.2555 7.06961 17.9209 
42 10 14.1156 -0.461381 19.2951 
43 4 17.0923 -0.400718 19.0199 
44 4 13.8674 -3.3806 19.4169 
45 4 14.315 0.010611 -2.40668 
46 4 14.2293 2.88054 19.1149 
47 9 16.8004 -2.39538 -2.09018 
48 5 16.2086 -7.48332 -2.19444 
49 3 16.9951 -1.49925 -2.51834 
50 3 17.1258 -2.42846 -1.12432 
51 3 15.8489 -2.53831 -1.92168 
52 8 17.5285 -3.42256 21.8418 
53 2 17.285 -3.31569 20.7761 
54 2 18.6106 -3.23845 21.9008 
55 6 17.1572 -5.35937 -1.37724 
56 5 16.5307 -6.61346 -1.12648 
57 7 17.2238 -4.88864 -2.66547 
58 6 16.7734 -5.70779 21.02 
59 5 16.3205 -6.98727 21.2982 
60 1 17.3525 -4.65418 -0.562688 
61 1 16.2883 -6.97817 -0.177749 
62 1 16.7839 -5.21551 20.0262 
63 1 15.7882 -8.43772 -1.96162 
64 1 15.9333 -7.60656 20.4882 
65 9 17.389 2.44485 21.5719 
66 5 17.2138 7.27461 21.1513 
67 3 17.0183 1.46818 21.6075 
68 3 18.4027 2.34679 21.6539 
69 3 16.9977 2.80812 20.6623 
70 8 16.8539 3.32081 -2.12638 
71 2 15.8896 2.96832 -2.17802 
72 2 17.215 2.94137 -1.09822 
73 6 15.8555 5.57583 -2.52877 
74 5 15.9686 6.83345 21.5904 
75 7 16.9752 4.79003 -2.4281 
76 6 18.2117 5.28908 -2.78396 
77 5 18.321 6.4921 21.3453 
78 1 14.872 5.3145 -2.18917 
79 1 15.0825 7.43819 21.4927 
80 1 19.0438 4.64902 -2.65435 
81 1 17.3232 8.20567 20.5896 
82 1 19.3362 6.77994 20.9989 
83 10 14.2628 0.136159 0.538968 
84 4 17.3198 0.0900566 0.556049 
85 4 14.504 -3.23931 0.706527 
86 4 14.0259 -0.100403 3.59773 
87 4 14.1748 3.32403 0.886874 
88 9 17.2169 -2.51957 3.34677 
89 5 16.4045 -7.53642 2.55302 
90 3 16.1608 -2.38109 3.58884 
91 3 17.3143 -2.71912 2.33363 
92 3 17.5498 -1.48464 3.51865 
93 8 17.8047 -3.70108 4.18094 
94 2 18.8895 -3.77785 4.0842 
95 2 17.4947 -3.60295 5.26332 
96 6 15.9252 -5.38275 3.56924 
97 5 15.4935 -6.60701 3.06995 
98 7 17.285 -5.09829 3.67089 
99 6 18.2296 -6.0235 3.22402 
100 5 17.7837 -7.24945 2.69483 
101 1 15.2051 -4.65243 3.89976 
102 1 14.4759 -6.88614 3.05845 
103 1 19.255 -5.79627 3.36175 
104 1 16.0552 -8.46439 2.18718 
105 1 18.5865 -7.89049 2.37545 
106 9 17.0985 2.28049 4.14641 
107 5 16.9096 7.6199 3.96764 
108 3 16.196 1.90951 3.95219 
109 3 17.0883 2.42091 5.16952 
110 3 17.7372 1.47339 3.94831 
111 8 17.654 3.39617 3.1445 
112 2 18.7584 3.09126 3.0893 
113 2 17.323 3.02117 2.17794 
114 6 17.3761 5.78821 2.38487 
115 5 17.1184 7.16521 2.62041 
116 7 17.3853 4.88203 3.44972 
117 6 17.0525 5.31185 4.70089 
118 5 16.8956 6.68234 4.9434 
119 1 17.5612 5.39418 1.38202 
120 1 17.068 7.85012 1.72811 
121 1 16.8275 4.53939 5.44083 
122 1 16.8051 8.67916 4.21546 
123 1 16.8028 7.0132 5.99157 
124 10 14.1128 -0.285 6.65956 
125 4 17.2298 -0.425274 6.48413 
126 4 13.7863 -3.43572 6.59862 
127 4 14.0014 -0.118374 9.87886 
128 4 14.4875 2.69037 6.71379 
129 9 17.5042 -2.8094 9.95427 
130 5 17.9485 -8.02452 9.54983 
131 3 18.4972 -2.95117 9.69022 
132 3 17.5249 -2.98398 10.946 
133 3 17.2995 -1.82439 9.76 
134 8 16.7065 -3.85141 9.16916 
135 2 15.6308 -3.75546 9.5142 
136 2 16.8102 -3.66051 8.10541 
137 6 17.1794 -6.15408 8.24063 
138 5 17.597 -7.51926 8.28662 
139 7 17.1026 -5.29489 9.34622 
140 6 17.4186 -5.86032 10.6024 
141 5 17.8428 -7.19871 10.634 
142 1 16.9014 -5.76922 7.30876 
143 1 17.6396 -8.12885 7.42199 
144 1 17.4234 -5.28799 11.5295 
145 1 18.2918 -9.05975 9.71652 
146 1 18.1554 -7.52246 11.6468 
147 9 17.1318 1.89023 9.32515 
148 5 16.1831 6.89905 9.15252 
149 3 17.1796 0.979033 9.68636 
150 3 17.4481 1.91969 8.35545 
151 3 16.1263 2.07584 9.18563 
152 8 17.6558 2.98092 10.2437 
153 2 17.2923 2.76554 11.2862 
154 2 18.7032 2.84201 10.2674 
155 6 15.8288 4.63114 9.94979 
156 5 15.3702 5.86843 9.69211 
157 7 17.215 4.38384 9.86921 
158 6 18.1128 5.4499 9.5706 
159 5 17.6131 6.69296 9.13401 
160 1 15.1063 3.85721 10.1448 
161 1 14.2363 6.11934 9.79518 
162 1 19.1886 5.15386 9.59283 
163 1 15.6938 7.75025 8.76237 
164 1 18.2462 7.48747 8.68405 
165 10 20.354 -0.00217148 12.8699 
166 4 -0.944514 -0.082776 12.4922 
167 4 20.1646 -3.52465 12.6855 
168 4 20.2767 -0.135544 16.0543 
169 4 20.6727 3.11303 13.064 
170 9 -1.23316 -2.74576 16.5067 
171 5 -1.84911 -7.64528 15.2218 
172 3 -2.25875 -2.88844 16.6431 
173 3 -1.05642 -1.74374 16.3862 
174 3 -0.83153 -3.025 17.4263 
175 8 -0.692502 -3.56659 15.4228 
176 2 -0.789275 -3.05544 14.4448 
177 2 0.377001 -3.621 15.6396 
178 6 -1.45327 -5.52379 14.0956 
179 5 -1.85043 -6.86369 14.0936 
180 7 -1.14971 -4.95929 15.3318 
181 6 -1.25796 -5.71553 16.4516 
182 5 -1.59477 -7.07871 16.4448 
183 1 -1.26918 -4.9691 13.1917 
184 1 -1.96459 -7.23455 13.08 
185 1 -1.07896 -5.23023 17.4275 
186 1 -1.96064 -8.70441 15.0805 
187 1 -1.50933 -7.72308 17.3562 
188 9 -0.612072 2.37378 15.517 
189 5 -1.35656 7.49125 16.0243 
190 3 -0.688084 1.33625 15.5254 
191 3 0.396831 2.6541 15.5372 
192 3 -0.927753 2.65327 14.573 
193 8 -1.45477 3.20733 16.5393 
194 2 -2.45125 2.86843 16.6119 
195 2 -1.10122 3.00303 17.5448 
196 6 21.7498 5.50296 16.3874 
197 5 -2.55766 6.87081 16.2825 
198 7 -1.49133 4.69548 16.2511 
199 6 -0.273103 5.3158 15.9979 
200 5 -0.1736 6.69245 15.84 
201 1 20.8 5.15418 16.7691 
202 1 20.9576 7.47364 16.5022 
203 1 0.601177 4.66091 15.9149 
204 1 -1.24879 8.57586 15.9834 
205 1 0.742396 7.17122 15.4132 
206 10 20.253 -0.193697 19.0749 
207 4 -0.925027 -0.0854115 19.1086 
208 4 20.5399 -3.29314 19.1994 
209 4 20.2984 -0.029342 -2.48035 
210 4 20.1025 2.97164 19.2942 
211 9 -0.777934 -2.46207 21.7407 
212 5 -0.719626 -7.62155 21.5139 
213 3 -0.902774 -1.48122 21.9368 
214 3 -0.996074 -2.6475 20.733 
215 3 0.237417 -2.6221 21.9005 
216 8 -1.42998 -3.48022 -1.99882 
217 2 -0.988556 -3.27211 -0.987843 
218 2 -2.47978 -3.25473 -1.95694 
219 6 -2.27687 -5.81284 -2.64809 
220 5 -2.06562 -7.12102 21.6267 
221 7 -1.20313 -4.9155 -2.47206 
222 6 0.132105 -5.37588 -2.70609 
223 5 0.358901 -6.70994 21.6354 
224 1 21.0455 -5.43784 -2.65956 
225 1 21.5085 -7.80024 21.4541 
226 1 1.04272 -4.77466 -2.5164 
227 1 -0.500037 -8.65899 21.4197 
228 1 1.45436 -7.05301 21.4936 
229 9 -1.61981 2.54762 -2.59997 
230 5 -1.61152 7.67522 21.3491 
231 3 21.7686 2.75669 -2.69809 
232 3 -1.41056 2.57009 -1.5942 
233 3 -1.53119 1.52505 21.9095 
234 8 -0.740915 3.47897 21.3439 
235 2 0.257809 3.31325 21.6635 
236 2 -0.78601 3.15783 20.2713 
237 6 -1.14616 5.6356 -2.1585 
238 5 -1.3018 7.03158 -2.19247 
239 7 -1.11192 4.93433 21.4188 
240 6 -1.24346 5.61831 20.1835 
241 5 -1.48003 6.97614 20.1343 
242 1 -0.972609 5.00844 -1.25738 
243 1 -1.37738 7.62565 -1.28535 
244 1 -1.2192 4.98368 19.337 
245 1 -1.93702 8.75705 21.2665 
246 1 -1.58248 7.4995 19.1586 
247 10 20.3319 -0.0824431 0.452215 
248 4 -0.967626 0.107459 0.509681 
249 4 20.031 -3.14031 0.553341 
250 4 20.2709 -0.275903 3.70703 
251 4 20.3999 3.07037 0.236581 
252 9 -0.627081 -2.42452 3.23257 
253 5 -0.580339 -7.42633 2.93017 
254 3 -0.844304 -1.4754 3.28292 
255 3 -0.550674 -2.61898 2.20857 
256 3 0.288497 -2.61404 3.62927 
257 8 -1.64161 -3.36297 3.8988 
258 2 -1.7129 -3.0721 4.92982 
259 2 21.7453 -3.18025 3.50254 
260 6 -0.911522 -5.80056 4.66839 
261 5 -0.447642 -7.06364 4.28808 
262 7 -1.14718 -4.7881 3.65047 
263 6 -1.27218 -5.15005 2.36269 
264 5 -0.922688 -6.48124 1.996 
265 1 -0.846668 -5.43653 5.69211 
266 1 -0.228103 -7.83102 5.06421 
267 1 -1.57089 -4.46717 1.5898 
268 1 -0.34059 -8.44443 2.57196 
269 1 -1.09441 -6.77373 0.998175 
270 9 -1.536 2.22906 4.24523 
271 5 -2.49995 7.13635 4.42525 
272 3 -1.11673 1.28495 4.05621 
273 3 -2.57866 2.09339 4.2471 
274 3 -1.26827 2.39601 5.2352 
275 8 -1.00637 3.27877 3.20569 
276 2 0.0420303 3.21548 3.2285 
277 2 -1.33381 2.97814 2.18434 
278 6 21.5709 4.79679 3.89545 
279 5 21.0145 6.01457 4.30945 
280 7 -1.4719 4.65849 3.60069 
281 6 -0.554277 5.64226 3.98927 
282 5 -1.06754 6.95777 4.27769 
283 1 20.8484 4.06289 3.59183 
284 1 19.9114 6.00074 4.64185 
285 1 0.463799 5.35245 3.98709 
286 1 21.4482 8.02698 4.90981 
287 1 -0.338382 7.77494 4.59974 
288 10 20.2119 -0.325896 6.77478 
289 4 -1.08472 -0.380775 6.88854 
290 4 20.2132 -3.56268 7.13677 
291 4 20.1687 0.00349174 9.81052 
292 4 20.0862 2.66036 6.79489 
293 9 -1.48365 -2.65284 10.0834 
294 5 -0.768449 -7.699 10.5672 
295 3 -2.44837 -2.98208 9.97948 
296 3 -1.50311 -1.63313 9.79258 
297 3 -1.36776 -2.70312 11.1344 
298 8 -0.529672 -3.60812 9.35023 
299 2 -0.839273 -3.6084 8.27719 
300 2 0.475377 -3.12108 9.4587 
301 6 -1.85255 -5.66278 10.0742 
302 5 -1.97293 -6.98301 10.4726 
303 7 -0.609788 -5.07827 9.8057 
304 6 0.599828 -5.7842 10.157 
305 5 0.522744 -7.10816 10.5394 
306 1 21.5643 -5.2214 9.90109 
307 1 21.4437 -7.29582 10.5153 
308 1 1.58195 -5.30114 10.0456 
309 1 -0.864032 -8.70415 10.8654 
310 1 1.42928 -7.58984 10.7509 
311 9 -1.43931 2.40722 9.32689 
312 5 -2.11823 7.55271 9.78734 
313 3 -1.28689 2.32619 8.31552 
314 3 -2.39966 2.52132 9.45094 
315 3 -1.21435 1.40704 9.73161 
316 8 -0.573684 3.47598 9.95045 
317 2 -0.52182 3.2013 11.0072 
318 2 0.454548 3.34974 9.49441 
319 6 -1.4035 5.58071 10.9878 
320 5 -1.94942 6.87315 10.9959 
321 7 -1.10508 4.87946 9.85028 
322 6 -1.3601 5.54274 8.65101 
323 5 -1.75453 6.88155 8.63474 
324 1 -1.17732 5.12191 11.9048 
325 1 -2.10282 7.32683 11.9594 
326 1 -1.17927 4.95957 7.74215 
327 1 21.7882 8.4955 9.70769 
328 1 -1.80055 7.41994 7.7332 
329 10 2.11794 -0.188025 12.6559 
330 4 5.04292 -0.060499 12.9872 
331 4 2.38215 -3.3379 12.7764 
332 4 1.83837 -0.324145 15.7899 
333 4 2.06419 3.31462 13.0516 
334 9 4.6725 -2.54872 15.6184 
335 5 4.6576 -7.2941 14.5659 
336 3 3.65804 -2.64868 15.4921 
337 3 5.06023 -2.60641 14.6623 
338 3 4.77396 -1.61182 15.9622 
339 8 5.22647 -3.59363 16.6069 
340 2 6.29252 -3.34856 16.649 
341 2 4.73432 -3.47603 17.5592 
342 6 3.76486 -5.41251 15.7442 
343 5 3.56245 -6.61607 15.0415 
344 7 5.02253 -4.9853 16.0988 
345 6 6.13471 -5.75688 15.7508 
346 5 5.96577 -6.82451 14.8513 
347 1 2.87562 -4.82011 16.1007 
348 1 2.58203 -6.81349 14.6998 
349 1 7.10973 -5.35976 15.7618 
350 1 4.51023 -8.11189 13.9412 
351 1 6.8469 -7.34571 14.4043 
352 9 4.52005 2.64732 15.5025 
353 5 5.3763 7.52316 16.1872 
354 3 4.78342 2.58982 14.4739 
355 3 3.60313 3.1005 15.58 
356 3 4.41256 1.66271 15.7104 
357 8 5.69061 3.2652 16.3789 
358 2 5.43882 3.09153 17.4557 
359 2 6.6969 2.8559 16.0233 
360 6 5.54966 5.40288 15.0339 
361 5 5.3746 6.81741 14.9749 
362 7 5.71126 4.74055 16.3218 
363 6 5.72391 5.45031 17.5012 
364 5 5.60699 6.8345 17.4233 
365 1 5.53661 4.78969 14.1668 
366 1 5.09392 7.2814 14.0126 
367 1 5.70048 4.88159 18.3842 
368 1 5.3688 8.64118 16.1144 
369 1 5.54493 7.45501 18.312 
370 10 2.11519 -0.130449 19.0366 
371 4 4.99212 -0.157493 18.8558 
372 4 1.71464 -3.24996 19.0806 
373 4 2.19367 0.152969 -2.65958 
374 4 2.04312 3.03343 18.297 
375 9 4.85146 -2.22389 -1.8347 
376 5 4.45666 -7.25963 -2.46555 
377 3 4.99778 -1.27301 -2.1175 
378 3 5.49132 -2.31682 -1.0116 
379 3 3.81287 -2.25619 -1.47527 
380 8 5.27636 -3.11189 21.797 
381 2 4.86769 -2.87441 20.7774 
382 2 6.42731 -3.06661 21.8542 
383 6 4.99874 -5.4674 20.8438 
384 5 4.70211 -6.82728 20.9951 
385 7 4.98396 -4.59367 21.9564 
386 6 4.71772 -5.10714 -1.52491 
387 5 4.41091 -6.45694 -1.35695 
388 1 5.31354 -5.07823 19.8419 
389 1 4.81904 -7.46171 20.1368 
390 1 4.78599 -4.50381 -0.617465 
391 1 4.27517 -8.32884 -2.32972 
392 1 4.26251 -7.01701 -0.455459 
393 9 5.43547 2.68047 -2.2144 
394 5 5.19903 7.62079 21.2745 
395 3 5.22861 3.05715 -1.26299 
396 3 6.47962 2.83493 -2.3699 
397 3 5.18486 1.69306 -2.08222 
398 8 4.72776 3.36667 21.3807 
399 2 5.14947 3.03045 20.378 
400 2 3.64493 3.12905 21.4454 
401 6 3.70867 5.71201 21.3666 
402 5 3.86751 7.08789 21.2743 
403 7 4.88024 4.89137 21.4191 
404 6 6.16522 5.45022 21.4376 
405 5 6.36502 6.81339 21.2374 
406 1 2.78066 5.07475 21.5336 
407 1 3.08001 7.79049 21.2743 
408 1 7.01852 4.7878 21.5169 
409 1 5.25352 8.65423 21.2162 
410 1 7.40133 7.19961 21.0942 
411 10 1.98058 0.498256 0.466908 
412 4 4.9963 0.281637 0.657767 
413 4 1.93574 -3.03411 0.6243 
414 4 1.88981 0.282224 3.56308 
415 4 2.12022 3.50437 -0.147743 
416 9 4.56414 -2.31655 2.99402 
417 5 5.31034 -7.56233 3.19156 
418 3 4.65378 -1.31548 3.22101 
419 3 3.64434 -2.43869 3.28726 
420 3 4.71204 -2.48019 1.99477 
421 8 5.47483 -3.2345 3.83703 
422 2 6.52381 -3.00048 3.69074 
423 2 5.27395 -2.97924 4.88209 
424 6 4.15906 -5.42454 3.61216 
425 5 4.13843 -6.83285 3.36474 
426 7 5.36835 -4.73835 3.76393 
427 6 6.54788 -5.50857 3.58991 
428 5 6.47998 -6.89286 3.45237 
429 1 3.1796 -4.90681 3.61102 
430 1 3.2143 -7.38163 3.27497 
431 1 7.50402 -4.9515 3.68483 
432 1 5.22264 -8.61548 3.15356 
433 1 7.40851 -7.43507 3.36819 
434 9 5.06943 2.15141 4.10278 
435 5 4.36987 6.72816 5.58586 
436 3 4.9459 1.28456 3.51041 
437 3 4.25807 2.1994 4.73486 
438 3 5.91653 1.99203 4.5861 
439 8 5.262 3.30716 3.15167 
440 2 6.31436 3.2573 2.95133 
441 2 4.54867 3.26097 2.28721 
442 6 3.61073 5.01813 4.02545 
443 5 3.31587 6.18249 4.81228 
444 7 4.92503 4.56403 3.87435 
445 6 5.94654 5.22689 4.59155 
446 5 5.72309 6.26652 5.4866 
447 1 2.85756 4.34358 3.59803 
448 1 2.25561 6.54422 4.9095 
449 1 6.97831 4.85828 4.32556 
450 1 4.12022 7.47019 6.34072 
451 1 6.58701 6.67721 6.00798 
452 10 1.8767 -0.0642064 6.72347 
453 4 4.96789 -0.169088 6.67674 
454 4 2.06915 -3.19315 6.24167 
455 4 2.18016 -0.199975 9.683 
456 4 1.59586 3.01233 6.43362 
457 9 5.52224 -2.77888 10.2474 
458 5 6.13246 -7.65694 9.17906 
459 3 6.51162 -2.96778 10.268 
460 3 5.17218 -3.07051 11.2064 
461 3 5.26877 -1.78812 10.1361 
462 8 4.78292 -3.5827 9.20892 
463 2 3.7286 -3.33856 9.37384 
464 2 4.95841 -3.20448 8.151 
465 6 5.56603 -5.64493 10.3738 
466 5 6.08911 -6.9663 10.3667 
467 7 5.23432 -5.02397 9.17744 
468 6 5.36173 -5.73793 7.97522 
469 5 5.8645 -7.02127 7.95211 
470 1 5.45794 -5.19182 11.3827 
471 1 6.36365 -7.32448 11.3118 
472 1 5.10541 -5.24829 7.05605 
473 1 6.48763 -8.68194 9.19102 
474 1 5.76121 -7.56177 7.05053 
475 9 5.32034 2.29903 10.0391 
476 5 4.70968 7.49827 10.2628 
477 3 5.11674 2.12581 11.018 
478 3 6.22351 2.68697 9.88963 
479 3 5.3166 1.31286 9.59371 
480 8 4.40483 3.20793 9.34487 
481 2 4.4992 3.03291 8.27268 
482 2 3.45874 2.89194 9.61071 
483 6 5.84978 5.32828 10.0865 
484 5 5.92189 6.75881 10.2808 
485 7 4.62172 4.73283 9.68776 
486 6 3.44526 5.45698 9.67819 
487 5 3.47151 6.84473 10.0158 
488 1 6.80236 4.7672 10.1252 
489 1 6.87067 7.19709 10.4552 
490 1 2.49375 4.92275 9.5162 
491 1 4.7157 8.6263 10.3937 
492 1 2.55246 7.41711 9.9088 
493 10 8.01989 -0.162475 13.1173 
494 4 11.0393 -0.339343 12.9789 
495 4 7.82573 -3.39074 12.9416 
496 4 8.1389 -0.389143 15.9238 
497 4 7.84184 2.77853 12.7122 
498 9 11.0156 -2.87058 16.5692 
499 5 10.7255 -7.72379 15.7207 
500 3 10.9295 -1.8873 16.2062 
501 3 11.1491 -2.80132 17.5707 
502 3 10.0661 -3.19867 16.5561 
503 8 12.0091 -3.64186 15.786 
504 2 12.0764 -3.22604 14.7947 
505 2 12.9256 -3.52582 16.2699 
506 6 11.7183 -5.91172 16.9116 
507 5 11.3128 -7.30238 16.8772 
508 7 11.5179 -5.078 15.7993 
509 6 10.9979 -5.62878 14.618 
510 5 10.5666 -6.98298 14.5416 
511 1 12.3715 -5.56118 17.6748 
512 1 11.6539 -7.92224 17.7129 
513 1 10.8824 -4.97027 13.7947 
514 1 10.4692 -8.79095 15.6522 
515 1 10.4153 -7.42723 13.5957 
516 9 11.4999 2.38716 16.7159 
517 5 10.2406 7.29864 16.5793 
518 3 11.0274 2.4669 17.6119 
519 3 12.438 2.73368 16.9024 
520 3 11.6439 1.35662 16.4842 
521 8 10.755 3.06682 15.5371 
522 2 11.2219 2.83091 14.6155 
523 2 9.81069 2.50626 15.5467 
524 6 11.7148 5.43896 15.9781 
525 5 11.4618 6.69978 16.5458 
526 7 10.6561 4.56016 15.7202 
527 6 9.38 5.12486 15.856 
528 5 9.18198 6.45567 16.1807 
529 1 12.6989 4.93574 15.9579 
530 1 12.3297 7.27986 16.9219 
531 1 8.46866 4.53576 15.6547 
532 1 10.1322 8.34339 16.7828 
533 1 8.16883 6.83362 16.3358 
534 10 8.10919 -0.0934547 18.8321 
535 4 11.1319 -0.240023 19.2536 
536 4 8.543 -3.55202 19.0843 
537 4 7.91302 -0.00517697 -2.63379 
538 4 8.30623 2.93441 19.0261 
539 9 10.8375 -2.64091 21.8767 
540 5 11.2724 -7.78817 21.857 
541 3 11.1164 -2.75113 20.8449 
542 3 10.9347 -1.60092 -2.7591 
543 3 9.79391 -2.69311 21.8219 
544 8 11.512 -3.54606 -1.80174 
545 2 12.6085 -3.30702 -1.87891 
546 2 11.3184 -3.3232 -0.749675 
547 6 10.2366 -5.60818 -2.46626 
548 5 10.1163 -6.92752 21.897 
549 7 11.4047 -5.02554 -2.10826 
550 6 12.5592 -5.83974 -2.16235 
551 5 12.4974 -7.20438 -2.4854 
552 1 9.38982 -4.94171 -2.46934 
553 1 9.07599 -7.32589 21.6784 
554 1 13.4533 -5.31594 -1.9208 
555 1 11.1987 -8.905 21.5966 
556 1 13.4592 -7.72282 -2.33847 
557 9 10.735 2.40675 -2.67109 
558 5 11.0367 7.56839 21.7093 
559 3 9.78234 2.38817 -2.33696 
560 3 11.0532 1.40206 -2.53468 
561 3 10.8388 2.52272 21.0584 
562 8 11.6 3.42121 -1.95863 
563 2 11.4386 3.27689 -0.865617 
564 2 12.6839 3.20108 -2.18661 
565 6 11.2838 5.86715 -1.36645 
566 5 11.1213 7.22548 -1.70343 
567 7 11.3805 4.83666 -2.35609 
568 6 11.2013 5.23573 21.0733 
569 5 10.8443 6.55446 20.7854 
570 1 11.3577 5.57118 -0.343504 
571 1 11.0748 7.98708 -0.916605 
572 1 11.1359 4.48676 20.1852 
573 1 11.0532 8.56788 21.3126 
574 1 10.6626 6.77309 19.7457 
575 10 8.15032 -0.0410991 0.457034 
576 4 11.3815 -0.160508 0.166944 
577 4 7.9413 -3.01459 0.516552 
578 4 8.1167 0.0476071 3.64091 
579 4 8.26456 2.94708 0.475176 
580 9 10.6495 -2.56924 4.07988 
581 5 10.7951 -7.50752 2.62984 
582 3 10.7099 -1.50936 4.16516 
583 3 10.8645 -2.8849 5.04764 
584 3 9.67084 -2.83571 3.85208 
585 8 11.6013 -3.31175 3.13579 
586 2 11.5626 -2.84727 2.14987 
587 2 12.5946 -3.20808 3.4938 
588 6 11.1784 -5.54384 4.15229 
589 5 10.9762 -6.88708 3.93028 
590 7 11.245 -4.74282 3.03819 
591 6 11.1628 -5.27797 1.80693 
592 5 10.9947 -6.64554 1.52587 
593 1 11.3817 -5.16533 5.10926 
594 1 10.8971 -7.46801 4.89747 
595 1 11.1701 -4.61064 0.968469 
596 1 10.7019 -8.51729 2.49742 
597 1 10.9399 -7.00736 0.501261 
598 9 11.3064 2.21137 3.19627 
599 5 10.9934 7.04779 2.73096 
600 3 11.3909 1.19307 3.43825 
601 3 12.2005 2.52051 2.80839 
602 3 10.6234 2.27429 2.45897 
603 8 10.9928 3.11963 4.33391 
604 2 10.0568 2.83951 4.6071 
605 2 11.6793 2.8584 5.16789 
606 6 9.83205 5.10353 3.46143 
607 5 9.81977 6.30396 2.72879 
608 7 11.013 4.50442 3.95436 
609 6 12.1884 5.2816 3.88761 
610 5 12.1802 6.49752 3.23801 
611 1 8.89371 4.54042 3.56871 
612 1 8.9515 6.63917 2.21371 
613 1 13.1406 4.92475 4.2357 
614 1 10.9648 7.97808 2.17796 
615 1 13.1411 7.02352 3.15871 
616 10 7.97646 -0.25909 6.83696 
617 4 10.9861 -0.185849 6.77529 
618 4 8.25656 -3.3631 6.67958 
619 4 8.06971 -0.332274 9.83985 
620 4 8.0192 3.00794 7.19225 
621 9 11.0729 -2.83211 9.38081 
622 5 11.0374 -7.993 10.109 
623 3 10.0386 -2.93288 9.2549 
624 3 11.5102 -3.15907 8.49658 
625 3 11.3169 -1.81888 9.38432 
626 8 11.6763 -3.70211 10.5073 
627 2 12.7421 -3.60767 10.3253 
628 2 11.4273 -3.27196 11.5036 
629 6 10.2199 -5.67782 9.79391 
630 5 10.0108 -7.11393 9.66456 
631 7 11.3578 -5.22188 10.456 
632 6 12.3241 -6.12544 10.906 
633 5 12.2153 -7.51389 10.6697 
634 1 9.45688 -5.0832 9.33845 
635 1 9.13077 -7.46896 9.07197 
636 1 13.2471 -5.70128 11.2551 
637 1 11.0288 -9.05189 9.9099 
638 1 13.0808 -8.13467 10.8921 
639 9 10.6382 2.03418 10.2114 
640 5 10.3034 6.89616 10.395 
641 3 10.7464 1.03928 9.90087 
642 3 9.69317 2.40565 10.1489 
643 3 10.8916 2.0398 11.2351 
644 8 11.5584 2.96707 9.52906 
645 2 12.6717 2.82641 9.69792 
646 2 11.4276 2.89911 8.37772 
647 6 11.1336 4.7255 11.1289 
648 5 10.4897 5.93522 11.3645 
649 7 11.2263 4.30852 9.80223 
650 6 10.9729 5.21027 8.74707 
651 5 10.5581 6.52747 9.02913 
652 1 11.2779 4.14321 11.9701 
653 1 10.2368 6.2223 12.4263 
654 1 10.9353 4.90651 7.70692 
655 1 9.84906 7.93474 10.5877 
656 1 10.3382 7.17617 8.18947 
ITEM: TIMESTEP
111000
ITEM: NUMBER OF ATOMS
656
ITEM: BOX BOUNDS pp pp pp
-2.5998455542790246e+00 2.1799845554278768e+01
-4.3779677730546460e+01 4.3779677730546460e+01
-2.7902652944662698e+00 2.1990265294465850e+01
ITEM: ATOMS id type x y z 
1 10 14.27 -0.335297 12.95 
2 4 17.3019 -0.0738599 12.6369 
3 4 14.6232 -3.34877 12.8488 
4 4 14.3699 -0.326329 15.9641 
5 4 14.3319 3.03576 13.1631 
6 9 17.557 -2.58218 15.4442 
7 5 18.0617 -7.61551 16.7595 
8 3 17.4042 -2.90136 14.4848 
9 3 18.58 -2.548 15.5683 
10 3 17.2001 -1.62369 15.5088 
11 8 16.9272 -3.48113 16.4771 
12 2 17.2005 -3.18445 17.5046 
13 2 15.8877 -3.2654 16.4655 
14 6 18.7015 -5.28829 16.2901 
15 5 19.016 -6.65387 16.4392 
16 7 17.2909 -4.96784 16.4797 
17 6 16.3052 -5.89322 16.7876 
18 5 16.6999 -7.26138 16.7494 
19 1 19.3877 -4.53738 16.1458 
20 1 20.0185 -6.85957 16.367 
21 1 15.2361 -5.67347 16.9422 
22 1 18.4254 -8.64703 16.9419 
23 1 16.0008 -8.05398 16.9712 
24 9 16.9544 2.39805 16.4748 
25 5 17.0638 7.32553 14.7925 
26 3 17.0176 2.71355 17.4288 
27 3 17.0621 1.37419 16.5622 
28 3 15.9867 2.642 16.1253 
29 8 17.959 3.18872 15.6734 
30 2 18.964 3.08866 16.1676 
31 2 18.1564 2.65866 14.7841 
32 6 17.3585 5.08333 14.0608 
33 5 17.085 6.40145 13.7727 
34 7 17.6281 4.62891 15.3511 
35 6 17.6217 5.57847 16.3715 
36 5 17.3978 6.94489 16.1135 
37 1 17.3832 4.33819 13.3069 
38 1 16.7836 6.63768 12.7524 
39 1 17.7995 5.21898 17.4333 
40 1 16.7565 8.35197 14.5927 
41 1 17.4509 7.76246 16.9897 
42 10 14.1322 -0.321723 19.0772 
43 4 17.2299 -0.165347 19.1037 
44 4 14.1684 -3.30844 19.5157 
45 4 13.8448 -0.210671 -2.65416 
46 4 14.2453 2.9782 18.765 
47 9 16.7793 -2.55158 -2.5012 
48 5 16.8616 -7.64801 21.8584 
49 3 16.8905 -1.5256 -2.59927 
50 3 16.6617 -2.72166 -1.49622 
51 3 15.9008 -2.59252 -2.98418 
52 8 17.8629 -3.44865 21.7667 
53 2 17.9683 -3.14064 20.7534 
54 2 18.7106 -3.24862 22.3096 
55 6 17.4647 -5.61935 -1.80859 
56 5 17.1677 -6.98743 -1.7318 
57 7 17.6037 -4.96857 21.7412 
58 6 17.1402 -5.64564 20.5579 
59 5 16.8762 -6.97296 20.6017 
60 1 17.7518 -5.02929 -0.863907 
61 1 17.1642 -7.50477 -0.706161 
62 1 17.1448 -5.08216 19.6365 
63 1 16.6364 -8.71221 21.9444 
64 1 16.5653 -7.51802 19.7135 
65 9 17.4917 2.20347 21.8761 
66 5 16.6696 7.07817 20.894 
67 3 17.2375 1.1895 -2.62389 
68 3 18.4928 2.26116 -2.75991 
69 3 17.2689 2.33448 20.9148 
70 8 16.7502 3.16612 -2.08633 
71 2 15.7256 2.83716 -1.9577 
72 2 17.1785 2.96377 -1.03348 
73 6 15.5731 5.33442 -2.6556 
74 5 15.495 6.57229 21.4532 
75 7 16.8158 4.65254 -2.57604 
76 6 17.9867 5.22616 21.7709 
77 5 17.9085 6.36789 21.0036 
78 1 14.6657 4.83989 -2.3456 
79 1 14.4826 6.94636 21.2561 
80 1 18.9703 4.7234 22.0639 
81 1 16.5919 7.94291 20.2805 
82 1 18.858 6.71123 20.5705 
83 10 14.1632 -0.157794 0.571648 
84 4 17.0664 -0.134345 0.215368 
85 4 14.5204 -3.57214 0.279939 
86 4 14.3374 -0.558255 3.57891 
87 4 14.2923 2.79184 1.00633 
88 9 17.118 -2.68499 2.89341 
89 5 17.6633 -7.75982 3.97395 
90 3 16.2845 -3.09774 2.49956 
91 3 17.8274 -2.81286 2.09838 
92 3 17.0876 -1.64721 3.05527 
93 8 17.44 -3.48681 4.08489 
94 2 18.3607 -3.14403 4.48908 
95 2 16.6505 -3.19168 4.75639 
96 6 16.348 -5.76557 3.79689 
97 5 16.4044 -7.13417 3.96108 
98 7 17.5074 -4.9487 3.80876 
99 6 18.7569 -5.60457 3.7535 
100 5 18.827 -6.99721 3.80272 
101 1 15.3468 -5.28235 3.75008 
102 1 15.3968 -7.60517 3.9831 
103 1 19.6953 -5.00125 3.61606 
104 1 17.7446 -8.85671 4.00014 
105 1 19.8466 -7.45799 3.67422 
106 9 16.8433 2.14442 3.7278 
107 5 17.0514 7.21682 3.64204 
108 3 15.8156 2.27982 3.54635 
109 3 16.9447 2.30142 4.72335 
110 3 16.93 1.10475 3.58955 
111 8 17.7534 3.02224 2.92809 
112 2 18.7614 2.77196 3.20328 
113 2 17.7473 2.76983 1.89005 
114 6 17.2194 5.41278 2.07766 
115 5 17.1072 6.7584 2.31227 
116 7 17.4426 4.55053 3.14789 
117 6 17.3557 4.97972 4.4532 
118 5 17.1477 6.32263 4.76831 
119 1 17.0203 4.98615 1.08752 
120 1 17.1303 7.50755 1.49966 
121 1 17.5053 4.22992 5.24348 
122 1 16.9784 8.2768 3.84399 
123 1 17.0161 6.58666 5.80642 
124 10 14.0257 -0.532434 6.67849 
125 4 17.0555 -0.336278 6.71299 
126 4 13.8881 -3.47171 6.8641 
127 4 13.7698 -0.252294 9.86348 
128 4 14.3689 2.9362 6.43024 
129 9 17.8005 -2.98786 10.3382 
130 5 17.0943 -8.13922 9.1063 
131 3 18.791 -3.28342 10.1602 
132 3 17.7233 -3.21719 11.3188 
133 3 17.9395 -1.9562 10.1342 
134 8 16.7866 -3.74191 9.47076 
135 2 15.7477 -3.30018 9.66429 
136 2 16.9336 -3.40826 8.3971 
137 6 16.9526 -5.91035 8.08826 
138 5 17.0923 -7.29058 8.01148 
139 7 16.9022 -5.29244 9.34851 
140 6 16.9088 -6.12177 10.4763 
141 5 16.9601 -7.53709 10.4201 
142 1 16.9513 -5.26233 7.16061 
143 1 17.1056 -7.77418 6.96317 
144 1 16.9806 -5.67088 11.5041 
145 1 17.1512 -9.19363 8.92538 
146 1 16.8973 -8.1537 11.3172 
147 9 16.8961 2.14245 9.19418 
148 5 16.645 7.15678 8.67572 
149 3 17.0194 1.15752 9.54757 
150 3 17.3002 2.27349 8.25554 
151 3 15.9053 2.17331 9.06764 
152 8 17.3705 3.16573 10.2199 
153 2 16.9934 2.98036 11.1772 
154 2 18.4487 3.09749 10.3131 
155 6 15.7838 5.09215 9.61116 
156 5 15.5968 6.38796 9.11865 
157 7 17.1138 4.58534 9.79544 
158 6 18.1825 5.43258 9.4051 
159 5 18.0069 6.70109 8.8437 
160 1 14.9799 4.44229 9.92604 
161 1 14.6141 6.80835 8.919 
162 1 19.1198 5.09003 9.68381 
163 1 16.3969 8.172 8.34303 
164 1 18.8088 7.28489 8.61757 
165 10 20.3608 -0.0455258 12.771 
166 4 -0.978199 -0.122562 12.9635 
167 4 20.2006 -3.04361 13.0075 
168 4 20.1884 -0.209662 15.9758 
169 4 20.6205 2.9148 12.8079 
170 9 -1.39006 -2.47282 16.3022 
171 5 -1.9106 -7.36582 15.5295 
172 3 -2.37111 -2.6056 16.0424 
173 3 -1.11316 -1.47282 16.0982 
174 3 -1.28468 -2.55342 17.3138 
175 8 -0.333107 -3.3983 15.6795 
176 2 -0.263831 -3.09854 14.6694 
177 2 0.709074 -3.18231 16.094 
178 6 -0.959799 -5.4184 14.4798 
179 5 -1.67167 -6.60926 14.3685 
180 7 -0.815346 -4.81741 15.7137 
181 6 -1.06487 -5.53939 16.9074 
182 5 -1.63061 -6.77618 16.7889 
183 1 -0.705397 -4.81012 13.6435 
184 1 -2.11284 -6.96961 13.4613 
185 1 -0.869118 -5.02426 17.8706 
186 1 -2.50154 -8.2295 15.4589 
187 1 -1.99247 -7.26486 17.6876 
188 9 -0.450752 2.60811 15.7946 
189 5 -1.45558 7.63467 16.1532 
190 3 -0.590604 1.56158 15.8408 
191 3 0.515469 2.82747 16.1826 
192 3 -0.538189 2.79389 14.7747 
193 8 -1.56315 3.40413 16.5313 
194 2 -2.52995 3.01761 16.259 
195 2 -1.35959 3.21521 17.58 
196 6 21.6231 5.59327 16.4104 
197 5 21.6276 7.00094 16.3343 
198 7 -1.54398 4.88599 16.3494 
199 6 -0.286784 5.47972 16.0752 
200 5 -0.288825 6.91373 15.9246 
201 1 20.7048 5.07394 16.5279 
202 1 20.6972 7.59015 16.3156 
203 1 0.616143 4.84301 15.9158 
204 1 -1.44994 8.72881 16.2169 
205 1 0.650604 7.46512 15.7067 
206 10 20.2957 0.0753144 19.0127 
207 4 -0.922558 0.177519 18.8777 
208 4 20.7762 -3.21094 18.9663 
209 4 20.2864 -0.183076 -2.50769 
210 4 20.0659 3.07536 19.2532 
211 9 -0.738656 -2.41807 21.6866 
212 5 -0.774124 -7.60396 21.8373 
213 3 -1.15578 -1.44857 21.7396 
214 3 -0.898819 -2.69536 20.6868 
215 3 0.282694 -2.30299 21.8696 
216 8 -1.50164 -3.35243 -2.19357 
217 2 -1.09093 -3.19556 -1.19087 
218 2 -2.53026 -3.12027 -2.22415 
219 6 -2.34566 -5.68331 -2.65052 
220 5 -2.05349 -7.09337 21.8669 
221 7 -1.24342 -4.82055 -2.38497 
222 6 0.0871116 -5.28565 -2.554 
223 5 0.275063 -6.69147 22.0633 
224 1 21.1172 -5.26351 -2.60664 
225 1 21.4743 -7.68602 21.6219 
226 1 0.994577 -4.64757 -2.55364 
227 1 -0.706614 -8.64981 21.5526 
228 1 1.32426 -6.9864 22.0096 
229 9 -1.51424 2.38655 -2.47983 
230 5 -1.91299 7.32144 -2.69448 
231 3 -2.50473 2.5246 21.8481 
232 3 -1.69108 2.45417 -1.46441 
233 3 -1.26113 1.39194 -2.59314 
234 8 -0.533487 3.37565 21.7918 
235 2 0.389174 3.26516 -2.37945 
236 2 -0.268368 3.16053 20.7895 
237 6 -1.18857 5.30469 -1.58316 
238 5 -1.60124 6.60453 -1.53296 
239 7 -1.00598 4.77456 21.9108 
240 6 -1.18862 5.49161 20.7209 
241 5 -1.64795 6.79258 20.8129 
242 1 -0.908592 4.72206 -0.629431 
243 1 -1.63675 7.0495 -0.576497 
244 1 -0.925651 5.08242 19.7944 
245 1 -2.27007 8.28453 -2.57364 
246 1 -1.98455 7.35177 19.9195 
247 10 20.303 -0.392234 0.427685 
248 4 -1.10205 0.0562779 0.262521 
249 4 20.321 -3.41331 0.61785 
250 4 20.0898 -0.202077 3.61555 
251 4 20.3612 3.10505 0.130121 
252 9 -0.613534 -2.66014 3.20314 
253 5 -0.667341 -7.84258 3.41349 
254 3 -0.704358 -1.74834 3.60894 
255 3 -0.95754 -2.58012 2.24896 
256 3 0.402179 -2.92136 3.18013 
257 8 -1.47359 -3.68934 3.93995 
258 2 -1.24824 -3.54335 4.98446 
259 2 21.8686 -3.44075 3.70738 
260 6 -1.44993 -5.95771 4.79162 
261 5 -1.24897 -7.31402 4.60399 
262 7 -1.27318 -5.12891 3.67475 
263 6 -0.810438 -5.60613 2.42592 
264 5 -0.627208 -6.98504 2.2615 
265 1 -1.74649 -5.4542 5.72818 
266 1 -1.20805 -7.90024 5.46821 
267 1 -0.653048 -4.98914 1.5144 
268 1 -0.612539 -8.9434 3.31871 
269 1 -0.327144 -7.36511 1.31255 
270 9 -1.54347 2.20676 4.17836 
271 5 -2.05181 7.44111 4.28395 
272 3 -1.16971 1.29131 3.9442 
273 3 21.8751 2.06259 4.33583 
274 3 -1.22988 2.3703 5.1542 
275 8 -1.15079 3.24866 3.05502 
276 2 -0.0423437 3.18481 2.94959 
277 2 -1.43789 2.94807 2.04023 
278 6 21.6554 5.17549 3.55319 
279 5 21.3447 6.48284 4.03162 