ITEM: TIMESTEP
0
ITEM: NUMBER OF ATOMS
656
ITEM: BOX BOUNDS pp pp pp
-3.2000000000000002e+00 2.2400000000000002e+01
-4.3779677730546460e+01 4.3779677730546460e+01
-3.2000000000000002e+00 2.2400000000000002e+01
ITEM: ATOMS id type x y z 
1 10 0 0 0 
2 4 3.2 0 0 
3 4 0 -3.2 0 
4 4 0 0 3.2 
5 4 0 3.2 0 
6 9 3.2 -3.2 3.2 
7 5 3.2 -8.15352 3.2 
8 3 4.16719 -3.41384 2.95133 
9 3 3.0963 -3.40171 4.19573 
10 3 3.03992 -2.20255 3.05241 
11 8 2.24938 -4.07172 2.38909 
12 2 1.24356 -3.78957 2.697 
13 2 2.39717 -3.79102 1.34721 
14 6 1.93048 -6.1788 3.70154 
15 5 2.25415 -7.49774 3.97496 
16 7 2.55597 -5.51228 2.6514 
17 6 3.49826 -6.17689 1.87116 
18 5 3.81983 -7.49573 2.14719 
19 1 1.17241 -5.67714 4.29544 
20 1 1.75963 -8.01788 4.78543 
21 1 3.96818 -5.67383 1.03141 
22 1 3.44715 -9.18645 3.41083 
23 1 4.5455 -8.01403 1.53342 
24 9 3.2 3.2 3.2 
25 5 3.2 8.15352 3.2 
26 3 2.85813 3.41384 4.13831 
27 3 4.2011 3.40171 3.19397 
28 3 3.06874 2.20255 3.02628 
29 8 2.48574 4.07172 2.17478 
30 2 2.89033 3.78957 1.20381 
31 2 1.4344 3.79102 2.22019 
32 6 3.82304 6.1788 1.98549 
33 5 4.06357 7.49774 2.3343 
34 7 2.71687 5.51228 2.50551 
35 6 1.8484 6.17689 3.36715 
36 5 2.09173 7.49573 3.71413 
37 1 4.48809 5.67714 1.28899 
38 1 4.91843 8.01788 1.92123 
39 1 0.966789 5.67383 3.75288 
40 1 3.3857 9.18645 3.46655 
41 1 1.41006 8.01403 4.37643 
42 10 0 0 6.4 
43 4 3.2 0 6.4 
44 4 0 -3.2 6.4 
45 4 0 0 9.6 
46 4 0 3.2 6.4 
47 9 3.2 -3.2 9.6 
48 5 3.2 -8.15352 9.6 
49 3 4.16719 -3.41384 9.35133 
50 3 3.0963 -3.40171 10.5957 
51 3 3.03992 -2.20255 9.45241 
52 8 2.24938 -4.07172 8.78909 
53 2 1.24356 -3.78957 9.097 
54 2 2.39717 -3.79102 7.74721 
55 6 1.93048 -6.1788 10.1015 
56 5 2.25415 -7.49774 10.375 
57 7 2.55597 -5.51228 9.0514 
58 6 3.49826 -6.17689 8.27116 
59 5 3.81983 -7.49573 8.54719 
60 1 1.17241 -5.67714 10.6954 
61 1 1.75963 -8.01788 11.1854 
62 1 3.96818 -5.67383 7.43141 
63 1 3.44715 -9.18645 9.81083 
64 1 4.5455 -8.01403 7.93342 
65 9 3.2 3.2 9.6 
66 5 3.2 8.15352 9.6 
67 3 2.85813 3.41384 10.5383 
68 3 4.2011 3.40171 9.59397 
69 3 3.06874 2.20255 9.42628 
70 8 2.48574 4.07172 8.57478 
71 2 2.89033 3.78957 7.60381 
72 2 1.4344 3.79102 8.62019 
73 6 3.82304 6.1788 8.38549 
74 5 4.06357 7.49774 8.7343 
75 7 2.71687 5.51228 8.90551 
76 6 1.8484 6.17689 9.76715 
77 5 2.09173 7.49573 10.1141 
78 1 4.48809 5.67714 7.68899 
79 1 4.91843 8.01788 8.32123 
80 1 0.966789 5.67383 10.1529 
81 1 3.3857 9.18645 9.86655 
82 1 1.41006 8.01403 10.7764 
83 10 0 0 12.8 
84 4 3.2 0 12.8 
85 4 0 -3.2 12.8 
86 4 0 0 16 
87 4 0 3.2 12.8 
88 9 3.2 -3.2 16 
89 5 3.2 -8.15352 16 
90 3 4.16719 -3.41384 15.7513 
91 3 3.0963 -3.40171 16.9957 
92 3 3.03992 -2.20255 15.8524 
93 8 2.24938 -4.07172 15.1891 
94 2 1.24356 -3.78957 15.497 
95 2 2.39717 -3.79102 14.1472 
96 6 1.93048 -6.1788 16.5015 
97 5 2.25415 -7.49774 16.775 
98 7 2.55597 -5.51228 15.4514 
99 6 3.49826 -6.17689 14.6712 
100 5 3.81983 -7.49573 14.9472 
101 1 1.17241 -5.67714 17.0954 
102 1 1.75963 -8.01788 17.5854 
103 1 3.96818 -5.67383 13.8314 
104 1 3.44715 -9.18645 16.2108 
105 1 4.5455 -8.01403 14.3334 
106 9 3.2 3.2 16 
107 5 3.2 8.15352 16 
108 3 2.85813 3.41384 16.9383 
109 3 4.2011 3.40171 15.994 
110 3 3.06874 2.20255 15.8263 
111 8 2.48574 4.07172 14.9748 
112 2 2.89033 3.78957 14.0038 
113 2 1.4344 3.79102 15.0202 
114 6 3.82304 6.1788 14.7855 
115 5 4.06357 7.49774 15.1343 
116 7 2.71687 5.51228 15.3055 
117 6 1.8484 6.17689 16.1672 
118 5 2.09173 7.49573 16.5141 
119 1 4.48809 5.67714 14.089 
120 1 4.91843 8.01788 14.7212 
121 1 0.966789 5.67383 16.5529 
122 1 3.3857 9.18645 16.2665 
123 1 1.41006 8.01403 17.1764 
124 10 0 0 19.2 
125 4 3.2 0 19.2 
126 4 0 -3.2 19.2 
127 4 0 0 -3.2 
128 4 0 3.2 19.2 
129 9 3.2 -3.2 22.4 
130 5 3.2 -8.15352 22.4 
131 3 4.16719 -3.41384 22.1513 
132 3 3.0963 -3.40171 -2.20427 
133 3 3.03992 -2.20255 22.2524 
134 8 2.24938 -4.07172 21.5891 
135 2 1.24356 -3.78957 21.897 
136 2 2.39717 -3.79102 20.5472 
137 6 1.93048 -6.1788 -2.69846 
138 5 2.25415 -7.49774 -2.42504 
139 7 2.55597 -5.51228 21.8514 
140 6 3.49826 -6.17689 21.0712 
141 5 3.81983 -7.49573 21.3472 
142 1 1.17241 -5.67714 -2.10456 
143 1 1.75963 -8.01788 -1.61457 
144 1 3.96818 -5.67383 20.2314 
145 1 3.44715 -9.18645 -2.98917 
146 1 4.5455 -8.01403 20.7334 
147 9 3.2 3.2 -3.2 
148 5 3.2 8.15352 -3.2 
149 3 2.85813 3.41384 -2.26169 
150 3 4.2011 3.40171 22.394 
151 3 3.06874 2.20255 22.2263 
152 8 2.48574 4.07172 21.3748 
153 2 2.89033 3.78957 20.4038 
154 2 1.4344 3.79102 21.4202 
155 6 3.82304 6.1788 21.1855 
156 5 4.06357 7.49774 21.5343 
157 7 2.71687 5.51228 21.7055 
158 6 1.8484 6.17689 -3.03285 
159 5 2.09173 7.49573 -2.68587 
160 1 4.48809 5.67714 20.489 
161 1 4.91843 8.01788 21.1212 
162 1 0.966789 5.67383 -2.64712 
163 1 3.3857 9.18645 -2.93345 
164 1 1.41006 8.01403 -2.02357 
165 10 6.4 0 0 
166 4 9.6 0 0 
167 4 6.4 -3.2 0 
168 4 6.4 0 3.2 
169 4 6.4 3.2 0 
170 9 9.6 -3.2 3.2 
171 5 9.6 -8.15352 3.2 
172 3 10.5672 -3.41384 2.95133 
173 3 9.4963 -3.40171 4.19573 
174 3 9.43992 -2.20255 3.05241 
175 8 8.64938 -4.07172 2.38909 
176 2 7.64356 -3.78957 2.697 
177 2 8.79717 -3.79102 1.34721 
178 6 8.33048 -6.1788 3.70154 
179 5 8.65415 -7.49774 3.97496 
180 7 8.95597 -5.51228 2.6514 
181 6 9.89826 -6.17689 1.87116 
182 5 10.2198 -7.49573 2.14719 
183 1 7.57241 -5.67714 4.29544 
184 1 8.15963 -8.01788 4.78543 
185 1 10.3682 -5.67383 1.03141 
186 1 9.84715 -9.18645 3.41083 
187 1 10.9455 -8.01403 1.53342 
188 9 9.6 3.2 3.2 
189 5 9.6 8.15352 3.2 
190 3 9.25813 3.41384 4.13831 
191 3 10.6011 3.40171 3.19397 
192 3 9.46874 2.20255 3.02628 
193 8 8.88574 4.07172 2.17478 
194 2 9.29033 3.78957 1.20381 
195 2 7.8344 3.79102 2.22019 
196 6 10.223 6.1788 1.98549 
197 5 10.4636 7.49774 2.3343 
198 7 9.11687 5.51228 2.50551 
199 6 8.2484 6.17689 3.36715 
200 5 8.49173 7.49573 3.71413 
201 1 10.8881 5.67714 1.28899 
202 1 11.3184 8.01788 1.92123 
203 1 7.36679 5.67383 3.75288 
204 1 9.7857 9.18645 3.46655 
205 1 7.81006 8.01403 4.37643 
206 10 6.4 0 6.4 
207 4 9.6 0 6.4 
208 4 6.4 -3.2 6.4 
209 4 6.4 0 9.6 
210 4 6.4 3.2 6.4 
211 9 9.6 -3.2 9.6 
212 5 9.6 -8.15352 9.6 
213 3 10.5672 -3.41384 9.35133 
214 3 9.4963 -3.40171 10.5957 
215 3 9.43992 -2.20255 9.45241 
216 8 8.64938 -4.07172 8.78909 
217 2 7.64356 -3.78957 9.097 
218 2 8.79717 -3.79102 7.74721 
219 6 8.33048 -6.1788 10.1015 
220 5 8.65415 -7.49774 10.375 
221 7 8.95597 -5.51228 9.0514 
222 6 9.89826 -6.17689 8.27116 
223 5 10.2198 -7.49573 8.54719 
224 1 7.57241 -5.67714 10.6954 
225 1 8.15963 -8.01788 11.1854 
226 1 10.3682 -5.67383 7.43141 
227 1 9.84715 -9.18645 9.81083 
228 1 10.9455 -8.01403 7.93342 
229 9 9.6 3.2 9.6 
230 5 9.6 8.15352 9.6 
231 3 9.25813 3.41384 10.5383 
232 3 10.6011 3.40171 9.59397 
233 3 9.46874 2.20255 9.42628 
234 8 8.88574 4.07172 8.57478 
235 2 9.29033 3.78957 7.60381 
236 2 7.8344 3.79102 8.62019 
237 6 10.223 6.1788 8.38549 
238 5 10.4636 7.49774 8.7343 
239 7 9.11687 5.51228 8.90551 
240 6 8.2484 6.17689 9.76715 
241 5 8.49173 7.49573 10.1141 
242 1 10.8881 5.67714 7.68899 
243 1 11.3184 8.01788 8.32123 
244 1 7.36679 5.67383 10.1529 
245 1 9.7857 9.18645 9.86655 
246 1 7.81006 8.01403 10.7764 
247 10 6.4 0 12.8 
248 4 9.6 0 12.8 
249 4 6.4 -3.2 12.8 
250 4 6.4 0 16 
251 4 6.4 3.2 12.8 
252 9 9.6 -3.2 16 
253 5 9.6 -8.15352 16 
254 3 10.5672 -3.41384 15.7513 
255 3 9.4963 -3.40171 16.9957 
256 3 9.43992 -2.20255 15.8524 
257 8 8.64938 -4.07172 15.1891 
258 2 7.64356 -3.78957 15.497 
259 2 8.79717 -3.79102 14.1472 
260 6 8.33048 -6.1788 16.5015 
261 5 8.65415 -7.49774 16.775 
262 7 8.95597 -5.51228 15.4514 
263 6 9.89826 -6.17689 14.6712 
264 5 10.2198 -7.49573 14.9472 
265 1 7.57241 -5.67714 17.0954 
266 1 8.15963 -8.01788 17.5854 
267 1 10.3682 -5.67383 13.8314 
268 1 9.84715 -9.18645 16.2108 
269 1 10.9455 -8.01403 14.3334 
270 9 9.6 3.2 16 
271 5 9.6 8.15352 16 
272 3 9.25813 3.41384 16.9383 
273 3 10.6011 3.40171 15.994 
274 3 9.46874 2.20255 15.8263 
275 8 8.88574 4.07172 14.9748 
276 2 9.29033 3.78957 14.0038 
277 2 7.8344 3.79102 15.0202 
278 6 10.223 6.1788 14.7855 
279 5 10.4636 7.49774 15.1343 
280 7 9.11687 5.51228 15.3055 
281 6 8.2484 6.17689 16.1672 
282 5 8.49173 7.49573 16.5141 
283 1 10.8881 5.67714 14.089 
284 1 11.3184 8.01788 14.7212 
285 1 7.36679 5.67383 16.5529 
286 1 9.7857 9.18645 16.2665 
287 1 7.81006 8.01403 17.1764 
288 10 6.4 0 19.2 
289 4 9.6 0 19.2 
290 4 6.4 -3.2 19.2 
291 4 6.4 0 -3.2 
292 4 6.4 3.2 19.2 
293 9 9.6 -3.2 22.4 
294 5 9.6 -8.15352 22.4 
295 3 10.5672 -3.41384 22.1513 
296 3 9.4963 -3.40171 -2.20427 
297 3 9.43992 -2.20255 22.2524 
298 8 8.64938 -4.07172 21.5891 
299 2 7.64356 -3.78957 21.897 
300 2 8.79717 -3.79102 20.5472 
301 6 8.33048 -6.1788 -2.69846 
302 5 8.65415 -7.49774 -2.42504 
303 7 8.95597 -5.51228 21.8514 
304 6 9.89826 -6.17689 21.0712 
305 5 10.2198 -7.49573 21.3472 
306 1 7.57241 -5.67714 -2.10456 
307 1 8.15963 -8.01788 -1.61457 
308 1 10.3682 -5.67383 20.2314 
309 1 9.84715 -9.18645 -2.98917 
310 1 10.9455 -8.01403 20.7334 
311 9 9.6 3.2 -3.2 
312 5 9.6 8.15352 -3.2 
313 3 9.25813 3.41384 -2.26169 
314 3 10.6011 3.40171 22.394 
315 3 9.46874 2.20255 22.2263 
316 8 8.88574 4.07172 21.3748 
317 2 9.29033 3.78957 20.4038 
318 2 7.8344 3.79102 21.4202 
319 6 10.223 6.1788 21.1855 
320 5 10.4636 7.49774 21.5343 
321 7 9.11687 5.51228 21.7055 
322 6 8.2484 6.17689 -3.03285 
323 5 8.49173 7.49573 -2.68587 
324 1 10.8881 5.67714 20.489 
325 1 11.3184 8.01788 21.1212 
326 1 7.36679 5.67383 -2.64712 
327 1 9.7857 9.18645 -2.93345 
328 1 7.81006 8.01403 -2.02357 
329 10 12.8 0 0 
330 4 16 0 0 
331 4 12.8 -3.2 0 
332 4 12.8 0 3.2 
333 4 12.8 3.2 0 
334 9 16 -3.2 3.2 
335 5 16 -8.15352 3.2 
336 3 16.9672 -3.41384 2.95133 
337 3 15.8963 -3.40171 4.19573 
338 3 15.8399 -2.20255 3.05241 
339 8 15.0494 -4.07172 2.38909 
340 2 14.0436 -3.78957 2.697 
341 2 15.1972 -3.79102 1.34721 
342 6 14.7305 -6.1788 3.70154 
343 5 15.0542 -7.49774 3.97496 
344 7 15.356 -5.51228 2.6514 
345 6 16.2983 -6.17689 1.87116 
346 5 16.6198 -7.49573 2.14719 
347 1 13.9724 -5.67714 4.29544 
348 1 14.5596 -8.01788 4.78543 
349 1 16.7682 -5.67383 1.03141 
350 1 16.2472 -9.18645 3.41083 
351 1 17.3455 -8.01403 1.53342 
352 9 16 3.2 3.2 
353 5 16 8.15352 3.2 
354 3 15.6581 3.41384 4.13831 
355 3 17.0011 3.40171 3.19397 
356 3 15.8687 2.20255 3.02628 
357 8 15.2857 4.07172 2.17478 
358 2 15.6903 3.78957 1.20381 
359 2 14.2344 3.79102 2.22019 
360 6 16.623 6.1788 1.98549 
361 5 16.8636 7.49774 2.3343 
362 7 15.5169 5.51228 2.50551 
363 6 14.6484 6.17689 3.36715 
364 5 14.8917 7.49573 3.71413 
365 1 17.2881 5.67714 1.28899 
366 1 17.7184 8.01788 1.92123 
367 1 13.7668 5.67383 3.75288 
368 1 16.1857 9.18645 3.46655 
369 1 14.2101 8.01403 4.37643 
370 10 12.8 0 6.4 
371 4 16 0 6.4 
372 4 12.8 -3.2 6.4 
373 4 12.8 0 9.6 
374 4 12.8 3.2 6.4 
375 9 16 -3.2 9.6 
376 5 16 -8.15352 9.6 
377 3 16.9672 -3.41384 9.35133 
378 3 15.8963 -3.40171 10.5957 
379 3 15.8399 -2.20255 9.45241 
380 8 15.0494 -4.07172 8.78909 
381 2 14.0436 -3.78957 9.097 
382 2 15.1972 -3.79102 7.74721 
383 6 14.7305 -6.1788 10.1015 
384 5 15.0542 -7.49774 10.375 
385 7 15.356 -5.51228 9.0514 
386 6 16.2983 -6.17689 8.27116 
387 5 16.6198 -7.49573 8.54719 
388 1 13.9724 -5.67714 10.6954 
389 1 14.5596 -8.01788 11.1854 
390 1 16.7682 -5.67383 7.43141 
391 1 16.2472 -9.18645 9.81083 
392 1 17.3455 -8.01403 7.93342 
393 9 16 3.2 9.6 
394 5 16 8.15352 9.6 
395 3 15.6581 3.41384 10.5383 
396 3 17.0011 3.40171 9.59397 
397 3 15.8687 2.20255 9.42628 
398 8 15.2857 4.07172 8.57478 
399 2 15.6903 3.78957 7.60381 
400 2 14.2344 3.79102 8.62019 
401 6 16.623 6.1788 8.38549 
402 5 16.8636 7.49774 8.7343 
403 7 15.5169 5.51228 8.90551 
404 6 14.6484 6.17689 9.76715 
405 5 14.8917 7.49573 10.1141 
406 1 17.2881 5.67714 7.68899 
407 1 17.7184 8.01788 8.32123 
408 1 13.7668 5.67383 10.1529 
409 1 16.1857 9.18645 9.86655 
410 1 14.2101 8.01403 10.7764 
411 10 12.8 0 12.8 
412 4 16 0 12.8 
413 4 12.8 -3.2 12.8 
414 4 12.8 0 16 
415 4 12.8 3.2 12.8 
416 9 16 -3.2 16 
417 5 16 -8.15352 16 
418 3 16.9672 -3.41384 15.7513 
419 3 15.8963 -3.40171 16.9957 
420 3 15.8399 -2.20255 15.8524 
421 8 15.0494 -4.07172 15.1891 
422 2 14.0436 -3.78957 15.497 
423 2 15.1972 -3.79102 14.1472 
424 6 14.7305 -6.1788 16.5015 
425 5 15.0542 -7.49774 16.775 
426 7 15.356 -5.51228 15.4514 
427 6 16.2983 -6.17689 14.6712 
428 5 16.6198 -7.49573 14.9472 
429 1 13.9724 -5.67714 17.0954 
430 1 14.5596 -8.01788 17.5854 
431 1 16.7682 -5.67383 13.8314 
432 1 16.2472 -9.18645 16.2108 
433 1 17.3455 -8.01403 14.3334 
434 9 16 3.2 16 
435 5 16 8.15352 16 
436 3 15.6581 3.41384 16.9383 
437 3 17.0011 3.40171 15.994 
438 3 15.8687 2.20255 15.8263 
439 8 15.2857 4.07172 14.9748 
440 2 15.6903 3.78957 14.0038 
441 2 14.2344 3.79102 15.0202 
442 6 16.623 6.1788 14.7855 
443 5 16.8636 7.49774 15.1343 
444 7 15.5169 5.51228 15.3055 
445 6 14.6484 6.17689 16.1672 
446 5 14.8917 7.49573 16.5141 
447 1 17.2881 5.67714 14.089 
448 1 17.7184 8.01788 14.7212 
449 1 13.7668 5.67383 16.5529 
450 1 16.1857 9.18645 16.2665 
451 1 14.2101 8.01403 17.1764 
452 10 12.8 0 19.2 
453 4 16 0 19.2 
454 4 12.8 -3.2 19.2 
455 4 12.8 0 -3.2 
456 4 12.8 3.2 19.2 
457 9 16 -3.2 22.4 
458 5 16 -8.15352 22.4 
459 3 16.9672 -3.41384 22.1513 
460 3 15.8963 -3.40171 -2.20427 
461 3 15.8399 -2.20255 22.2524 
462 8 15.0494 -4.07172 21.5891 
463 2 14.0436 -3.78957 21.897 
464 2 15.1972 -3.79102 20.5472 
465 6 14.7305 -6.1788 -2.69846 
466 5 15.0542 -7.49774 -2.42504 
467 7 15.356 -5.51228 21.8514 
468 6 16.2983 -6.17689 21.0712 
469 5 16.6198 -7.49573 21.3472 
470 1 13.9724 -5.67714 -2.10456 
471 1 14.5596 -8.01788 -1.61457 
472 1 16.7682 -5.67383 20.2314 
473 1 16.2472 -9.18645 -2.98917 
474 1 17.3455 -8.01403 20.7334 
475 9 16 3.2 -3.2 
476 5 16 8.15352 -3.2 
477 3 15.6581 3.41384 -2.26169 
478 3 17.0011 3.40171 22.394 
479 3 15.8687 2.20255 22.2263 
480 8 15.2857 4.07172 21.3748 
481 2 15.6903 3.78957 20.4038 
482 2 14.2344 3.79102 21.4202 
483 6 16.623 6.1788 21.1855 
484 5 16.8636 7.49774 21.5343 
485 7 15.5169 5.51228 21.7055 
486 6 14.6484 6.17689 -3.03285 
487 5 14.8917 7.49573 -2.68587 
488 1 17.2881 5.67714 20.489 
489 1 17.7184 8.01788 21.1212 
490 1 13.7668 5.67383 -2.64712 
491 1 16.1857 9.18645 -2.93345 
492 1 14.2101 8.01403 -2.02357 
493 10 19.2 0 0 
494 4 -3.2 0 0 
495 4 19.2 -3.2 0 
496 4 19.2 0 3.2 
497 4 19.2 3.2 0 
498 9 22.4 -3.2 3.2 
499 5 -3.2 -8.15352 3.2 
500 3 -2.23281 -3.41384 2.95133 
501 3 22.2963 -3.40171 4.19573 
502 3 22.2399 -2.20255 3.05241 
503 8 21.4494 -4.07172 2.38909 
504 2 20.4436 -3.78957 2.697 
505 2 21.5972 -3.79102 1.34721 
506 6 21.1305 -6.1788 3.70154 
507 5 21.4542 -7.49774 3.97496 
508 7 21.756 -5.51228 2.6514 
509 6 -2.90174 -6.17689 1.87116 
510 5 -2.58017 -7.49573 2.14719 
511 1 20.3724 -5.67714 4.29544 
512 1 20.9596 -8.01788 4.78543 
513 1 -2.43182 -5.67383 1.03141 
514 1 -2.95285 -9.18645 3.41083 
515 1 -1.8545 -8.01403 1.53342 
516 9 -3.2 3.2 3.2 
517 5 22.4 8.15352 3.2 
518 3 22.0581 3.41384 4.13831 
519 3 -2.1989 3.40171 3.19397 
520 3 22.2687 2.20255 3.02628 
521 8 21.6857 4.07172 2.17478 
522 2 22.0903 3.78957 1.20381 
523 2 20.6344 3.79102 2.22019 
524 6 -2.57696 6.1788 1.98549 
525 5 -2.33643 7.49774 2.3343 
526 7 21.9169 5.51228 2.50551 
527 6 21.0484 6.17689 3.36715 
528 5 21.2917 7.49573 3.71413 
529 1 -1.91191 5.67714 1.28899 
530 1 -1.48157 8.01788 1.92123 
531 1 20.1668 5.67383 3.75288 
532 1 -3.0143 9.18645 3.46655 
533 1 20.6101 8.01403 4.37643 
534 10 19.2 0 6.4 
535 4 -3.2 0 6.4 
536 4 19.2 -3.2 6.4 
537 4 19.2 0 9.6 
538 4 19.2 3.2 6.4 
539 9 22.4 -3.2 9.6 
540 5 -3.2 -8.15352 9.6 
541 3 -2.23281 -3.41384 9.35133 
542 3 22.2963 -3.40171 10.5957 
543 3 22.2399 -2.20255 9.45241 
544 8 21.4494 -4.07172 8.78909 
545 2 20.4436 -3.78957 9.097 
546 2 21.5972 -3.79102 7.74721 
547 6 21.1305 -6.1788 10.1015 
548 5 21.4542 -7.49774 10.375 
549 7 21.756 -5.51228 9.0514 
550 6 -2.90174 -6.17689 8.27116 
551 5 -2.58017 -7.49573 8.54719 
552 1 20.3724 -5.67714 10.6954 
553 1 20.9596 -8.01788 11.1854 
554 1 -2.43182 -5.67383 7.43141 
555 1 -2.95285 -9.18645 9.81083 
556 1 -1.8545 -8.01403 7.93342 
557 9 -3.2 3.2 9.6 
558 5 22.4 8.15352 9.6 
559 3 22.0581 3.41384 10.5383 
560 3 -2.1989 3.40171 9.59397 
561 3 22.2687 2.20255 9.42628 
562 8 21.6857 4.07172 8.57478 
563 2 22.0903 3.78957 7.60381 
564 2 20.6344 3.79102 8.62019 
565 6 -2.57696 6.1788 8.38549 
566 5 -2.33643 7.49774 8.7343 
567 7 21.9169 5.51228 8.90551 
568 6 21.0484 6.17689 9.76715 
569 5 21.2917 7.49573 10.1141 
570 1 -1.91191 5.67714 7.68899 
571 1 -1.48157 8.01788 8.32123 
572 1 20.1668 5.67383 10.1529 
573 1 -3.0143 9.18645 9.86655 
574 1 20.6101 8.01403 10.7764 
575 10 19.2 0 12.8 
576 4 -3.2 0 12.8 
577 4 19.2 -3.2 12.8 
578 4 19.2 0 16 
579 4 19.2 3.2 12.8 
580 9 22.4 -3.2 16 
581 5 22.4 -8.15352 16 
582 3 -2.23281 -3.41384 15.7513 
583 3 22.2963 -3.40171 16.9957 
584 3 22.2399 -2.20255 15.8524 
585 8 21.4494 -4.07172 15.1891 
586 2 20.4436 -3.78957 15.497 
587 2 21.5972 -3.79102 14.1472 
588 6 21.1305 -6.1788 16.5015 
589 5 21.4542 -7.49774 16.775 
590 7 21.756 -5.51228 15.4514 
591 6 -2.90174 -6.17689 14.6712 
592 5 -2.58017 -7.49573 14.9472 
593 1 20.3724 -5.67714 17.0954 
594 1 20.9596 -8.01788 17.5854 
595 1 -2.43182 -5.67383 13.8314 
596 1 -2.95285 -9.18645 16.2108 
597 1 -1.8545 -8.01403 14.3334 
598 9 -3.2 3.2 16 
599 5 22.4 8.15352 16 
600 3 22.0581 3.41384 16.9383 
601 3 -2.1989 3.40171 15.994 
602 3 22.2687 2.20255 15.8263 
603 8 21.6857 4.07172 14.9748 
604 2 22.0903 3.78957 14.0038 
605 2 20.6344 3.79102 15.0202 
606 6 -2.57696 6.1788 14.7855 
607 5 -2.33643 7.49774 15.1343 
608 7 21.9169 5.51228 15.3055 
609 6 21.0484 6.17689 16.1672 
610 5 21.2917 7.49573 16.5141 
611 1 -1.91191 5.67714 14.089 
612 1 -1.48157 8.01788 14.7212 
613 1 20.1668 5.67383 16.5529 
614 1 -3.0143 9.18645 16.2665 
615 1 20.6101 8.01403 17.1764 
616 10 19.2 0 19.2 
617 4 -3.2 0 19.2 
618 4 19.2 -3.2 19.2 
619 4 19.2 0 -3.2 
620 4 19.2 3.2 19.2 
621 9 22.4 -3.2 22.4 
622 5 -3.2 -8.15352 22.4 
623 3 -2.23281 -3.41384 22.1513 
624 3 22.2963 -3.40171 -2.20427 
625 3 22.2399 -2.20255 22.2524 
626 8 21.4494 -4.07172 21.5891 
627 2 20.4436 -3.78957 21.897 
628 2 21.5972 -3.79102 20.5472 
629 6 21.1305 -6.1788 -2.69846 
630 5 21.4542 -7.49774 -2.42504 
631 7 21.756 -5.51228 21.8514 
632 6 -2.90174 -6.17689 21.0712 
633 5 -2.58017 -7.49573 21.3472 
634 1 20.3724 -5.67714 -2.10456 
635 1 20.9596 -8.01788 -1.61457 
636 1 -2.43182 -5.67383 20.2314 
637 1 -2.95285 -9.18645 -2.98917 
638 1 -1.8545 -8.01403 20.7334 
639 9 -3.2 3.2 -3.2 
640 5 22.4 8.15352 -3.2 
641 3 22.0581 3.41384 -2.26169 
642 3 -2.1989 3.40171 22.394 
643 3 22.2687 2.20255 22.2263 
644 8 21.6857 4.07172 21.3748 
645 2 22.0903 3.78957 20.4038 
646 2 20.6344 3.79102 21.4202 
647 6 -2.57696 6.1788 21.1855 
648 5 -2.33643 7.49774 21.5343 
649 7 21.9169 5.51228 21.7055 
650 6 21.0484 6.17689 -3.03285 
651 5 21.2917 7.49573 -2.68587 
652 1 -1.91191 5.67714 20.489 
653 1 -1.48157 8.01788 21.1212 
654 1 20.1668 5.67383 -2.64712 
655 1 -3.0143 9.18645 -2.93345 
656 1 20.6101 8.01403 -2.02357 
ITEM: TIMESTEP
1000
ITEM: NUMBER OF ATOMS
656
ITEM: BOX BOUNDS pp pp pp
-3.2000000000000002e+00 2.2400000000000002e+01
-4.3779677730546460e+01 4.3779677730546460e+01
-3.2000000000000002e+00 2.2400000000000002e+01
ITEM: ATOMS id type x y z 
1 10 -1.03671 -0.0386417 -1.34361 
2 4 2.01919 0.0840167 -1.26031 
3 4 -1.11578 -3.11218 -1.26016 
4 4 -1.15849 0.169422 1.79405 
5 4 -1.3367 3.15361 -1.4529 
6 9 2.67258 -2.32254 2.17796 
7 5 3.02185 -7.41013 2.02181 
8 3 3.68094 -2.49248 2.02241 
9 3 2.52905 -2.35088 3.20611 
10 3 2.49104 -1.34508 1.88962 
11 8 1.79558 -3.30893 1.42084 
12 2 0.747916 -3.13376 1.70203 
13 2 1.89309 -3.07066 0.356343 
14 6 2.29314 -5.28621 2.9448 
15 5 2.70806 -6.61247 3.13901 
16 7 2.20511 -4.75064 1.64758 
17 6 2.54018 -5.54295 0.538672 
18 5 2.95166 -6.87352 0.72526 
19 1 2.06361 -4.654 3.8023 
20 1 2.79102 -7.01342 4.14541 
21 1 2.48779 -5.11083 -0.460229 
22 1 3.34574 -8.43512 2.16967 
23 1 3.22015 -7.47881 -0.135354 
24 9 2.65415 2.68672 1.82182 
25 5 1.67396 7.60172 2.81853 
26 3 2.58248 2.71164 2.85737 
27 3 3.63918 2.9222 1.59792 
28 3 2.53024 1.70095 1.52748 
29 8 1.65936 3.62168 1.12445 
30 2 1.84966 3.59214 0.0430511 
31 2 0.664962 3.18838 1.28367 
32 6 2.88018 5.70375 1.89319 
33 5 2.88199 6.9749 2.47383 
34 7 1.66688 5.04745 1.64376 
35 6 0.457291 5.68062 1.97052 
36 5 0.453419 6.94708 2.58421 
37 1 3.81952 5.19222 1.68294 
38 1 3.82898 7.44818 2.71364 
39 1 -0.475077 5.13259 1.84135 
40 1 1.6889 8.56139 3.32536 
41 1 -0.472547 7.375 2.94838 
42 10 -1.20373 0.164418 5.01777 
43 4 2.0302 0.13871 5.11784 
44 4 -0.944261 -3.16917 4.7553 
45 4 -1.0378 0.368356 8.09819 
46 4 -1.55764 3.34393 4.69424 
47 9 2.32632 -2.27617 8.62353 
48 5 2.41271 -7.46533 8.51142 
49 3 3.33038 -2.51864 8.70888 
50 3 1.95166 -2.23986 9.59154 
51 3 2.2969 -1.31307 8.23997 
52 8 1.56551 -3.2739 7.73755 
53 2 0.498766 -3.03306 7.81625 
54 2 1.86799 -3.06198 6.70305 
55 6 2.09953 -5.20189 9.34185 
56 5 2.42503 -6.54889 9.57099 
57 7 1.7847 -4.75599 8.0446 
58 6 1.69783 -5.69445 7.00223 
59 5 2.00458 -7.0472 7.2315 
60 1 2.11888 -4.48687 10.1658 
61 1 2.70158 -6.86173 10.5733 
62 1 1.41856 -5.35896 6.00533 
63 1 2.68419 -8.50175 8.68751 
64 1 1.96104 -7.75891 6.41258 
65 9 1.90799 2.64115 8.77683 
66 5 2.29486 7.67213 8.9413 
67 3 1.12151 2.76094 9.44508 
68 3 2.79531 2.76302 9.30298 
69 3 1.8752 1.65007 8.47623 
70 8 1.79924 3.58248 7.57157 
71 2 2.57077 3.28693 6.84595 
72 2 0.826349 3.39742 7.09423 
73 6 3.16001 5.72741 7.73975 
74 5 3.32442 7.03626 8.22492 
75 7 1.94342 5.05767 7.94079 
76 6 0.894611 5.72462 8.59916 
77 5 1.06529 7.02106 9.11354 
78 1 3.98297 5.21584 7.24789 
79 1 4.27782 7.53666 8.08033 
80 1 -0.0321721 5.18597 8.79329 
81 1 2.44948 8.66557 9.35317 
82 1 0.276879 7.49569 9.69076 
83 10 -1.09807 -0.246317 11.8679 
84 4 2.01972 -0.144731 11.9508 
85 4 -1.09528 -2.94795 11.1384 
86 4 -1.28936 -0.044458 14.8516 
87 4 -1.35979 3.05841 11.3255 
88 9 2.5694 -2.49725 15.0569 
89 5 2.65275 -7.68277 15.5571 
90 3 3.57307 -2.55215 14.8027 
91 3 2.5246 -2.52803 16.0951 
92 3 2.27465 -1.54419 14.7772 
93 8 1.7154 -3.59409 14.3843 
94 2 0.662235 -3.35939 14.5888 
95 2 1.83863 -3.48063 13.2971 
96 6 1.17743 -5.74756 15.6501 
97 5 1.47653 -7.06927 16.0177 
98 7 2.04938 -5.02668 14.8082 
99 6 3.21819 -5.65952 14.3302 
100 5 3.51688 -6.97818 14.7027 
101 1 0.276732 -5.2626 16.0266 
102 1 0.810976 -7.61086 16.6825 
103 1 3.88732 -5.10415 13.6708 
104 1 2.88396 -8.70465 15.8451 
105 1 4.42979 -7.44469 14.3428 
106 9 2.62548 2.28654 14.9899 
107 5 1.98453 7.2937 15.7568 
108 3 2.49077 2.25567 16.0145 
109 3 3.61646 2.55741 14.8371 
110 3 2.55079 1.32156 14.6257 
111 8 1.68755 3.2438 14.2646 
112 2 1.86172 3.16542 13.1855 
113 2 0.658582 2.90216 14.4332 
114 6 3.09311 5.2886 14.8948 
115 5 3.15673 6.60449 15.3926 
116 7 1.83853 4.67892 14.7265 
117 6 0.671752 5.36874 15.0749 
118 5 0.734658 6.66887 15.604 
119 1 4.00968 4.73997 14.6789 
120 1 4.12928 7.06411 15.5315 
121 1 -0.289989 4.86556 14.9736 
122 1 2.04056 8.29187 16.1807 
123 1 -0.178607 7.16677 15.9188 
124 10 -1.16104 0.258743 18.1018 
125 4 2.12128 -0.0640628 18.0476 
126 4 -1.32637 -3.17164 18.2138 
127 4 -1.0141 0.254195 21.0798 
128 4 -1.51682 3.26527 17.8148 
129 9 2.76902 -2.45603 21.2544 
130 5 2.21803 -7.5837 20.9704 
131 3 3.71322 -2.87041 21.1405 
132 3 2.60544 -2.35973 22.2721 
133 3 2.84202 -1.50384 20.8512 
134 8 1.68826 -3.29554 20.5687 
135 2 0.707067 -2.9331 20.8977 
136 2 1.76734 -3.06993 19.4994 
137 6 1.6682 -5.43568 21.9708 
138 5 1.85534 -6.8231 22.0914 
139 7 1.81628 -4.80786 20.722 
140 6 2.12881 -5.58772 19.5988 
141 5 2.32747 -6.97662 19.7154 
142 1 1.42681 -4.83669 -2.75336 
143 1 1.76899 -7.29753 -2.53574 
144 1 2.26285 -5.10497 18.6282 
145 1 2.40401 -8.64771 21.0744 
146 1 2.61161 -7.55463 18.842 
147 9 2.13192 2.34715 21.4149 
148 5 2.92781 7.32516 22.1527 
149 3 1.62514 2.36453 22.3197 
150 3 3.14107 2.3973 21.6558 
151 3 1.96293 1.4145 20.9941 
152 8 1.69814 3.50227 20.505 
153 2 2.10904 3.32285 19.5012 
154 2 0.606657 3.44879 20.4319 
155 6 3.43059 5.34224 20.815 
156 5 3.81301 6.58605 21.3382 
157 7 2.13227 4.85709 21.0509 
158 6 1.24923 5.60996 21.8479 
159 5 1.63484 6.84016 -3.19777 
160 1 4.13095 4.74789 20.2252 
161 1 4.81793 6.95104 21.1528 
162 1 0.265951 5.19694 22.0502 
163 1 3.26005 8.26146 -3.00919 
164 1 0.957406 7.38098 -2.54513 
165 10 5.26159 0.0174774 -1.42417 
166 4 8.34177 -0.226482 -1.13958 
167 4 4.95522 -3.03352 -1.57379 
168 4 5.25781 0.130529 1.80498 
169 4 4.9123 3.16809 -1.44621 
170 9 8.25708 -2.56417 2.72297 
171 5 8.0821 -7.66692 2.40948 
172 3 9.25182 -2.69781 2.97895 
173 3 7.71805 -2.74787 3.58845 
174 3 8.14234 -1.5545 2.52173 
175 8 7.80824 -3.42388 1.54727 
176 2 6.77482 -3.13869 1.31318 
177 2 8.4157 -3.15587 0.671656 
178 6 6.77875 -5.60695 2.31374 
179 5 6.86979 -6.98375 2.60111 
180 7 7.89995 -4.91193 1.83094 
181 6 9.10841 -5.60211 1.62055 
182 5 9.19823 -6.97439 1.91327 
183 1 5.84201 -5.08005 2.49114 
184 1 6.0026 -7.49944 3.00409 
185 1 9.97163 -5.05818 1.23437 
186 1 8.14624 -8.72393 2.64972 
187 1 10.1356 -7.49422 1.74173 
188 9 8.52387 2.2693 2.3552 
189 5 8.83674 7.37628 2.10549 
190 3 7.97685 2.50259 3.20594 
191 3 9.52079 2.31948 2.63282 
192 3 8.31818 1.27802 2.13551 
193 8 8.17029 3.19768 1.20384 
194 2 8.73694 2.9052 0.310691 
195 2 7.11228 3.03478 0.991241 
196 6 9.72092 5.1456 1.64243 
197 5 9.93626 6.51506 1.90338 
198 7 8.40891 4.65895 1.53156 
199 6 7.31709 5.51286 1.73942 
200 5 7.52168 6.87502 2.02948 
201 1 10.5662 4.46467 1.51765 
202 1 10.9561 6.88008 1.99656 
203 1 6.30451 5.11285 1.6913 
204 1 9.00316 8.42143 2.34389 
205 1 6.66752 7.52425 2.20413 
206 10 5.23327 0.128542 5.16676 
207 4 8.28559 0.128575 5.1431 
208 4 5.06151 -2.90511 5.01948 
209 4 5.06142 0.590808 8.13929 
210 4 5.22928 3.49684 4.64766 
211 9 9.08879 -2.51395 8.59462 
212 5 7.46234 -7.39617 8.80219 
213 3 9.95786 -3.03538 8.38086 
214 3 9.03588 -2.4533 9.624 
215 3 9.24286 -1.55422 8.24981 
216 8 7.85029 -3.16261 7.98081 
217 2 6.96 -2.62435 8.32761 
218 2 7.89409 -3.00735 6.89693 
219 6 7.91563 -5.13281 9.58275 
220 5 7.7706 -6.50589 9.84126 
221 7 7.73849 -4.65242 8.28139 
222 6 7.46458 -5.54946 7.23934 
223 5 7.29852 -6.91673 7.49148 
224 1 8.12763 -4.44017 10.3989 
225 1 7.8809 -6.8684 10.8581 
226 1 7.35508 -5.16354 6.22885 
227 1 7.35489 -8.45636 9.00772 
228 1 7.07855 -7.59925 6.67652 
229 9 9.09592 2.57774 8.34756 
230 5 7.65907 6.97662 10.5058 
231 3 8.70658 2.16032 9.21126 
232 3 10.042 2.91127 8.6108 
233 3 9.23444 1.80135 7.6769 
234 8 8.19847 3.66887 7.75917 
235 2 8.62419 4.0055 6.80458 
236 2 7.23163 3.20719 7.51656 
237 6 9.12816 5.49878 9.26028 
238 5 8.94795 6.57068 10.1622 
239 7 8.0189 4.83055 8.71256 
240 6 6.72842 5.21401 9.09754 
241 5 6.55429 6.27469 9.99822 
242 1 10.136 5.17726 9.013 
243 1 9.81553 7.04856 10.6119 
244 1 5.86624 4.63999 8.75329 
245 1 7.51103 7.7797 11.2203 
246 1 5.55239 6.51331 10.3479 
247 10 5.44306 0.22461 11.4803 
248 4 8.50578 -0.101271 11.3637 
249 4 5.05849 -2.73984 11.1799 
250 4 5.44127 0.209946 14.5965 
251 4 4.93007 3.21158 11.7868 
252 9 9.21821 -2.37364 14.7353 
253 5 9.266 -7.38649 15.2222 
254 3 10.0485 -2.58608 14.1556 
255 3 9.52209 -2.41294 15.7263 
256 3 8.98023 -1.385 14.5396 
257 8 8.04767 -3.30567 14.443 
258 2 7.18673 -2.98447 15.0464 
259 2 7.77848 -3.17647 13.385 
260 6 8.63919 -5.16897 16.0511 
261 5 9.05767 -6.48971 16.2844 
262 7 8.41345 -4.75029 14.7364 
263 6 8.60657 -5.6534 13.6795 
264 5 9.00737 -6.98213 13.9086 
265 1 8.51443 -4.46865 16.8804 
266 1 9.27144 -6.80015 17.3019 
267 1 8.48074 -5.2952 12.6597 
268 1 9.61689 -8.39391 15.4252 
269 1 9.18077 -7.65292 13.0711 
270 9 8.93091 2.5161 15.278 
271 5 9.01037 7.63118 15.3196 
272 3 8.36878 2.61413 16.1437 
273 3 9.92172 2.66475 15.5404 
274 3 8.83608 1.52687 14.9947 
275 8 8.47151 3.47579 14.1903 
276 2 8.97188 3.20749 13.2568 
277 2 7.40306 3.28271 14.0362 
278 6 9.98925 5.49738 14.6431 
279 5 10.1456 6.84337 15.0274 
280 7 8.70632 4.92887 14.5493 
281 6 7.5764 5.71907 14.8251 
282 5 7.73252 7.05888 15.2088 
283 1 10.8575 4.87157 14.4375 
284 1 11.139 7.27008 15.1314 
285 1 6.59164 5.24933 14.765 
286 1 9.13313 8.65883 15.6502 
287 1 6.85009 7.64025 15.4501 
288 10 5.68017 0.0121949 17.7948 
289 4 8.58721 -0.158071 17.819 
290 4 5.10873 -2.90413 17.8825 
291 4 5.53462 0.246395 20.9522 
292 4 5.60823 2.96629 17.5419 
293 9 9.06605 -2.40903 21.4364 
294 5 8.74107 -7.45102 22.092 
295 3 10.0077 -2.59533 21.0354 
296 3 9.16773 -2.50161 -3.13667 
297 3 8.8603 -1.41711 21.2321 
298 8 8.00462 -3.34516 20.8664 
299 2 7.01672 -3.0066 21.2123 
300 2 8.0254 -3.22448 19.7727 
301 6 8.20325 -5.15577 -2.95558 
302 5 8.42715 -6.47291 -2.54927 
303 7 8.26309 -4.78828 21.283 
304 6 8.5992 -5.76413 20.3291 
305 5 8.81758 -7.09471 20.7328 
306 1 8.00838 -4.38172 -2.21604 
307 1 8.39353 -6.72644 -1.49354 
308 1 8.6899 -5.46989 19.285 
309 1 8.92967 -8.47346 -3.19486 
310 1 9.06978 -7.84593 19.9896 
311 9 8.9273 2.32751 21.2179 
312 5 8.29606 6.91204 -2.48392 
313 3 8.35596 2.10985 22.0546 
314 3 9.90118 2.47173 21.5495 
315 3 8.93883 1.46735 20.6398 
316 8 8.38357 3.52612 20.4344 
317 2 8.93242 3.62022 19.4882 
318 2 7.35431 3.25499 20.2062 
319 6 9.5428 5.4973 21.5704 
320 5 9.50421 6.56115 -3.10752 
321 7 8.36042 4.82365 21.2269 
322 6 7.14826 5.24194 21.7806 
323 5 7.11219 6.26223 -2.85118 
324 1 10.4936 5.13288 21.1863 
325 1 10.434 7.02391 -2.79176 
326 1 6.23994 4.69306 21.5421 
327 1 8.28898 7.64729 -1.68556 
328 1 6.17121 6.46813 -2.33952 
329 10 11.5778 -0.173526 -1.08371 
330 4 14.6509 -0.307841 -1.30204 
331 4 11.6585 -3.28728 -1.30804 
332 4 11.4655 -0.0979737 2.02466 
333 4 11.6928 2.975 -1.58772 
334 9 15.9442 -2.65284 1.76966 
335 5 13.931 -6.979 3.78013 
336 3 16.8055 -3.18102 1.5461 
337 3 15.9888 -2.41597 2.77794 
338 3 16.0072 -1.77524 1.22585 
339 8 14.6768 -3.42349 1.38197 
340 2 13.8219 -2.74087 1.48475 
341 2 14.7477 -3.64346 0.304432 
342 6 13.1159 -4.96901 2.65199 
343 5 12.877 -6.09728 3.46041 