ITEM: TIMESTEP
10000
ITEM: NUMBER OF ATOMS
656
ITEM: BOX BOUNDS pp pp pp
-3.2000000000000002e+00 2.2400000000000002e+01
-4.3779677730546460e+01 4.3779677730546460e+01
-3.2000000000000002e+00 2.2400000000000002e+01
ITEM: ATOMS id type x y z 
1 10 16.8863 0.297993 15.5415 
2 4 19.8396 0.208799 15.3416 
3 4 16.3398 -2.75855 15.6897 
4 4 17.0882 0.201431 18.684 
5 4 16.364 3.24534 15.7339 
6 9 20.0752 -2.03211 19.5793 
7 5 20.569 -6.98415 19.095 
8 3 20.9612 -2.1254 20.1103 
9 3 19.3149 -2.34021 20.2091 
10 3 19.9257 -1.01866 19.4397 
11 8 20.0777 -2.78413 18.2514 
12 2 19.1414 -2.56638 17.7211 
13 2 20.8864 -2.377 17.6404 
14 6 19.128 -5.10527 18.5045 
15 5 19.2912 -6.46333 18.8107 
16 7 20.254 -4.26809 18.4663 
17 6 21.527 -4.78638 18.752 
18 5 21.695 -6.1468 19.0631 
19 1 18.1387 -4.67953 18.3159 
20 1 18.4197 -7.10885 18.8486 
21 1 22.3932 -4.12304 18.7442 
22 1 20.6864 -8.03316 19.3457 
23 1 -2.91119 -6.52933 19.287 
24 9 19.9725 2.72011 19.9214 
25 5 20.9388 7.36644 18.1481 
26 3 19.6919 3.29952 20.731 
27 3 20.9919 2.58938 19.9939 
28 3 19.5386 1.79647 20.0749 
29 8 19.558 3.31094 18.5833 
30 2 19.9524 2.68269 17.774 
31 2 18.4663 3.27997 18.5167 
32 6 21.4017 5.02106 18.5558 
33 5 21.8621 6.33269 18.3933 
34 7 20.03 4.73707 18.4471 
35 6 19.1046 5.76932 18.2535 
36 5 19.5587 7.0946 18.0924 
37 1 22.114 4.20898 18.7138 
38 1 -2.67303 6.53153 18.4419 
39 1 18.0433 5.5326 18.1731 
40 1 21.2963 8.37967 17.9996 
41 1 18.8412 7.89044 17.9115 
42 10 16.6824 0.0654552 22.1158 
43 4 19.7996 0.0148339 -3.07394 
44 4 16.6574 -2.88694 21.4756 
45 4 16.3089 0.136486 -0.289865 
46 4 16.8009 3.11146 21.6803 
47 9 21.0482 -2.17294 -0.0695458 
48 5 18.6973 -6.51588 -1.63808 
49 3 21.0174 -1.79693 -1.03119 
50 3 21.8602 -2.81245 -0.038593 
51 3 21.2892 -1.40013 0.569419 
52 8 19.7442 -2.83693 0.351986 
53 2 19.7934 -2.99296 1.43619 
54 2 18.9276 -2.12514 0.179181 
55 6 18.9954 -5.2312 0.412731 
56 5 18.6179 -6.41805 -0.235678 
57 7 19.446 -4.14303 -0.351256 
58 6 19.5378 -4.25355 -1.75546 
59 5 19.1619 -5.43293 -2.40553 
60 1 18.885 -5.12615 1.49167 
61 1 18.2542 -7.25664 0.351335 
62 1 19.8229 -3.38794 -2.35126 
63 1 18.3887 -7.42758 -2.13813 
64 1 19.1818 -5.48193 22.1062 
65 9 20.5896 2.39075 -0.11724 
66 5 19.6706 7.38074 0.240021 
67 3 20.8993 2.57724 0.851639 
68 3 21.3826 2.63559 -0.732004 
69 3 20.4671 1.36805 -0.196985 
70 8 19.3201 3.13761 -0.482547 
71 2 19.1156 2.94465 -1.53639 
72 2 18.4842 2.73583 0.100059 
73 6 19.451 5.5137 -1.32397 
74 5 19.5426 6.90153 -1.08252 
75 7 19.4624 4.62308 -0.243998 
76 6 19.627 5.10026 1.06194 
77 5 19.7499 6.47845 1.31015 
78 1 19.3622 5.11938 -2.33838 
79 1 19.5341 7.59198 -1.92154 
80 1 19.6698 4.39772 1.89617 
81 1 19.7589 8.44724 0.421364 
82 1 19.8899 6.82118 2.33376 
83 10 16.8648 0.293026 2.8564 
84 4 19.8984 0.37564 2.72206 
85 4 16.7155 -2.78713 2.99251 
86 4 17.02 0.218333 6.09288 
87 4 16.5441 3.26234 2.95915 
88 9 20.0499 -2.17014 7.0987 
89 5 21.5857 -6.90458 6.27162 
90 3 21.0844 -2.108 7.13046 
91 3 19.7549 -2.46045 8.04799 
92 3 19.6897 -1.20908 6.98094 
93 8 19.539 -3.10085 5.99387 
94 2 18.4451 -3.16264 6.06638 
95 2 19.7631 -2.62908 5.02385 
96 6 20.2286 -5.16567 7.30799 
97 5 20.9367 -6.38156 7.39954 
98 7 20.1722 -4.47601 6.08312 
99 6 20.8125 -5.00975 4.95339 
100 5 21.5327 -6.20873 5.0458 
101 1 19.7731 -4.73904 8.20227 
102 1 21.009 -6.87605 8.36459 
103 1 20.7484 -4.47638 4.01013 
104 1 22.1468 -7.83151 6.34547 
105 1 22.056 -6.59101 4.17247 
106 9 19.974 2.59477 7.09917 
107 5 20.5237 7.46396 6.38821 
108 3 19.3432 2.94831 7.83226 
109 3 20.9328 2.69304 7.46717 
110 3 19.8104 1.57915 7.02281 
111 8 19.8056 3.28859 5.76628 
112 2 20.4989 2.83367 5.05189 
113 2 18.7943 3.08819 5.40816 
114 6 21.3603 5.20185 6.16767 
115 5 21.6003 6.55734 6.41405 
116 7 20.0594 4.76326 5.88235 
117 6 18.9818 5.66148 5.84187 
118 5 19.2132 7.02133 6.1112 
119 1 22.1771 4.47861 6.22439 
120 1 -2.98839 6.88111 6.64763 
121 1 17.9759 5.28371 5.65434 
122 1 20.7118 8.51085 6.60092 
123 1 18.3771 7.71473 6.13288 
124 10 16.6831 0.281624 9.43782 
125 4 19.907 0.306729 9.75724 
126 4 16.9122 -2.68747 9.18177 
127 4 16.3732 0.336124 12.3743 
128 4 16.6739 3.43271 8.91813 
129 9 20.683 -2.1037 12.7062 
130 5 19.4508 -6.89633 13.9058 
131 3 21.6486 -2.34851 12.4199 
132 3 20.6821 -2.17337 13.7385 
133 3 20.5635 -1.10562 12.4714 
134 8 19.6228 -2.98159 12.0514 
135 2 18.6548 -2.48434 12.2035 
136 2 19.8027 -3.00063 10.9725 
137 6 18.3468 -4.89868 13.0338 
138 5 18.2854 -6.13285 13.6981 
139 7 19.5763 -4.38625 12.6145 
140 6 20.7527 -5.13912 12.8392 
141 5 20.6934 -6.39233 13.4717 
142 1 17.4508 -4.29506 12.8963 
143 1 17.327 -6.46897 14.0845 
144 1 21.7159 -4.7174 12.5514 
145 1 19.4002 -7.85195 14.4197 
146 1 21.6103 -6.9414 13.6715 
147 9 20.4286 2.60469 12.7454 
148 5 19.3292 7.48445 13.8657 
149 3 20.4793 2.65036 13.7767 
150 3 21.3692 2.88399 12.411 
151 3 20.327 1.60872 12.4885 
152 8 19.3084 3.4896 12.1694 
153 2 19.4036 3.48782 11.0783 
154 2 18.3477 3.02358 12.4088 
155 6 20.5274 5.60578 12.8876 
156 5 20.5343 6.87406 13.483 
157 7 19.3186 4.9177 12.6948 
158 6 18.116 5.5425 13.0679 
159 5 18.1125 6.82415 13.6477 
160 1 21.4728 5.12364 12.6337 
161 1 21.4833 7.3674 13.6732 
162 1 17.1769 5.0088 12.9455 
163 1 19.3434 8.46067 14.3395 
164 1 17.1718 7.26225 13.9722 
165 10 -2.4787 0.4139 15.9088 
166 4 0.687469 0.283637 16.0461 
167 4 -2.3337 -2.75368 15.3769 
168 4 -2.78337 0.323933 18.9928 
169 4 -2.56879 3.37465 15.399 
170 9 1.58101 -1.81489 19.0043 
171 5 0.847008 -6.82734 18.8585 
172 3 2.10927 -1.97647 18.1338 
173 3 2.1915 -2.09141 19.7866 
174 3 1.45749 -0.79423 19.0821 
175 8 0.252416 -2.54724 19.0147 
176 2 -0.288842 -2.25292 19.9181 
177 2 -0.348306 -2.20059 18.1685 
178 6 0.558911 -4.77319 20.1596 
179 5 0.762622 -6.16026 20.0994 
180 7 0.437856 -4.04657 18.9675 
181 6 0.571405 -4.69984 17.735 
182 5 0.762429 -6.08764 17.6674 
183 1 0.492268 -4.24716 21.1138 
184 1 0.84974 -6.72069 21.0251 
185 1 0.519846 -4.10907 16.8191 
186 1 0.988901 -7.90279 18.8189 
187 1 0.866558 -6.57109 16.699 
188 9 1.3737 2.73417 19.2043 
189 5 0.124206 7.53719 19.937 
190 3 1.57528 2.78497 20.2179 
191 3 2.18587 3.17104 18.7388 
192 3 1.40699 1.73558 18.9482 
193 8 0.0417945 3.38455 18.8498 
194 2 -0.143209 3.23685 17.7812 
195 2 -0.745653 2.87716 19.4121 
196 6 0.137329 5.19252 20.5656 
197 5 0.174599 6.5418 20.9317 
198 7 0.0214752 4.83899 19.2155 
199 6 -0.0749811 5.82097 18.2226 
200 5 -0.0264119 7.18034 18.5825 
201 1 0.214417 4.41957 21.3342 
202 1 0.273361 6.79917 21.9831 
203 1 -0.187838 5.51539 17.1813 
204 1 0.184189 8.5828 20.2205 
205 1 -0.0840508 7.9438 17.8117 
206 10 -2.2996 0.322533 22.2837 
207 4 0.641183 0.489815 21.8299 
208 4 -2.50712 -2.62371 22.3852 
209 4 -2.10212 0.400498 -0.252613 
210 4 -2.93108 3.29261 22.2812 
211 9 0.84062 -1.93963 0.638482 
212 5 2.30676 -6.66487 0.240271 
213 3 1.86839 -2.02354 0.734903 
214 3 0.458665 -2.08824 1.58979 
215 3 0.627324 -0.957706 0.394294 
216 8 0.276326 -2.93916 -0.361095 
217 2 -0.812375 -2.9734 -0.240579 
218 2 0.496309 -2.56726 -1.3724 
219 6 1.05662 -4.79108 1.14551 
220 5 1.80596 -5.95684 1.34187 
221 7 0.897611 -4.29117 -0.152271 
222 6 1.4062 -4.9841 -1.25405 
223 5 2.08319 -6.19345 -1.06726 
224 1 0.694431 -4.23625 2.01064 
225 1 2.02444 -6.27511 2.35635 
226 1 1.27841 -4.57164 -2.25419 
227 1 2.90648 -7.55445 0.39745 
228 1 2.49812 -6.71451 -1.92584 
229 9 0.571234 2.8816 0.853482 
230 5 -0.124737 7.6845 -0.761328 
231 3 -0.449045 2.73757 0.814342 
232 3 0.758736 3.41711 1.71757 
233 3 0.993546 1.95027 0.995112 
234 8 1.09871 3.54152 -0.410045 
235 2 2.19045 3.47988 -0.369862 
236 2 0.765062 2.96179 -1.28278 
237 6 1.63929 5.99215 -0.736662 
238 5 1.23735 7.33955 -0.847118 
239 7 0.678577 4.9897 -0.536788 
240 6 -0.678304 5.32911 -0.455194 
241 5 -1.08019 6.67082 -0.587233 
242 1 2.68753 5.71224 -0.828995 
243 1 1.98407 8.11086 -1.00976 
244 1 -1.43469 4.54862 -0.333763 
245 1 -0.433847 8.72116 -0.860253 
246 1 -2.14318 6.89984 -0.564439 
247 10 -2.51071 0.378859 3.35005 
248 4 0.650297 0.310009 3.51498 
249 4 -2.3626 -2.62894 2.90672 
250 4 -2.82015 0.409002 6.42223 
251 4 -2.51387 3.28879 2.83189 
252 9 1.47125 -2.05817 6.53907 
253 5 0.914075 -7.0147 7.364 
254 3 2.4014 -2.27544 6.13607 
255 3 1.56631 -2.12823 7.56612 
256 3 1.31024 -1.05996 6.32205 
257 8 0.363549 -2.95483 6.00125 
258 2 -0.599384 -2.56144 6.35556 
259 2 0.36781 -2.86694 4.9085 
260 6 -0.526923 -5.08465 7.01488 
261 5 -0.335948 -6.37837 7.51741 
262 7 0.526058 -4.40193 6.40051 
263 6 1.76256 -5.04121 6.22693 
264 5 1.96388 -6.34212 6.71245 
265 1 -1.48754 -4.58762 7.13413 
266 1 -1.15047 -6.87678 8.03531 
267 1 2.58809 -4.49773 5.77491 
268 1 1.05818 -8.01674 7.75748 
269 1 2.94485 -6.79843 6.61171 
270 9 1.36866 2.70705 6.46429 
271 5 0.0805124 7.69244 6.56795 
272 3 1.7051 2.83877 7.4306 
273 3 2.12498 3.03916 5.84594 
274 3 1.30857 1.68649 6.30678 
275 8 0.0361825 3.396 6.2105 
276 2 -0.279468 3.10892 5.20977 
277 2 -0.697812 2.98526 6.90875 
278 6 0.0462269 5.68118 5.18253 
279 5 0.0266827 7.07974 5.30028 
280 7 0.0641184 4.89835 6.34048 
281 6 0.108015 5.50741 7.60856 
282 5 0.149774 6.90551 7.72893 
283 1 0.0440596 5.20827 4.19892 
284 1 -0.00527289 7.68401 4.39768 
285 1 0.140023 4.88268 8.50288 
286 1 0.0951171 8.77494 6.64642 
287 1 0.228432 7.35873 8.71339 
288 10 -2.43363 0.30788 9.57974 
289 4 0.745103 0.338373 9.17434 
290 4 -2.73013 -2.67869 9.6202 
291 4 -2.26005 0.356448 12.6294 
292 4 -2.82323 3.23124 9.67301 
293 9 0.851247 -1.9209 13.3469 
294 5 2.51029 -6.44899 11.7559 
295 3 1.88277 -1.99122 13.4037 
296 3 0.479662 -2.18898 14.2754 
297 3 0.613926 -0.921339 13.2364 
298 8 0.26687 -2.78084 12.24 
299 2 -0.806809 -2.89336 12.4102 
300 2 0.366883 -2.21727 11.3095 
301 6 1.42293 -4.82757 13.2083 
302 5 2.19966 -5.98414 13.0446 
303 7 0.943564 -4.12117 12.0878 
304 6 1.21881 -4.6074 10.8022 
305 5 2.01148 -5.75531 10.6361 
306 1 1.23482 -4.4338 14.2079 
307 1 2.61753 -6.4766 13.9175 
308 1 0.896978 -4.03203 9.93304 
309 1 3.15682 -7.3101 11.6156 
310 1 2.29017 -6.0674 9.63506 
311 9 0.737979 2.85051 13.4841 
312 5 1.31681 7.7125 11.7591 
313 3 0.445692 3.22607 14.4055 
314 3 1.77058 2.86095 13.4833 
315 3 0.446025 1.86032 13.4842 
316 8 0.134083 3.59351 12.3001 
317 2 0.403326 3.05791 11.3812 
318 2 -0.951272 3.53278 12.4073 
319 6 1.8946 5.39208 12.2629 
320 5 2.28193 6.7234 12.0365 
321 7 0.538864 5.04403 12.1937 
322 6 -0.432294 6.03366 11.9778 
323 5 -0.0497665 7.37371 11.7657 
324 1 2.63813 4.61141 12.4175 
325 1 3.34247 6.96396 12.02 
326 1 -1.48026 5.73716 11.9215 
327 1 1.63513 8.72895 11.5451 
328 1 -0.806529 8.12641 11.5661 
329 10 3.93745 0.506826 15.764 
330 4 7.05845 0.548036 15.3932 
331 4 3.83964 -2.56123 15.8055 
332 4 4.25509 0.472196 18.9122 
333 4 3.32026 3.52867 16.0082 
334 9 7.0808 -1.90049 18.0853 
335 5 8.05546 -6.86947 18.6453 
336 3 6.59536 -1.9801 17.1751 
337 3 8.09019 -2.04752 17.9073 
338 3 6.99095 -0.913971 18.383 
339 8 6.53465 -2.85821 19.1304 
340 2 6.83402 -2.48041 20.1192 
341 2 5.43825 -2.82108 19.0918 
342 6 7.21646 -5.07624 20.0647 
343 5 7.71704 -6.38157 19.9246 
344 7 7.03593 -4.26962 18.9398 
345 6 7.3509 -4.76226 17.6632 
346 5 7.88147 -6.05078 17.514 
347 1 6.99958 -4.67095 21.0531 
348 1 7.89024 -6.98369 20.813 
349 1 7.20071 -4.1383 16.7837 
350 1 8.4777 -7.86363 18.5361 
351 1 8.17017 -6.39349 16.5227 
352 9 6.96222 2.81271 19.8661 
353 5 6.23033 7.69865 18.5417 
354 3 5.98381 2.86391 20.2 
355 3 7.54407 3.24297 20.5978 
356 3 7.20818 1.80696 19.8576 
357 8 7.16298 3.46223 18.4964 
358 2 8.19414 3.26861 18.1836 
359 2 6.50358 2.95824 17.7785 
360 6 7.83424 5.8939 18.1402 
361 5 7.52206 7.26511 18.1856 
362 7 6.85507 4.95262 18.4913 
363 6 5.55465 5.38756 18.8019 
364 5 5.22878 6.75473 18.8223 
365 1 8.83115 5.55508 17.8608 
366 1 8.29341 7.99123 17.9497 
367 1 4.78238 4.65149 19.0234 
368 1 5.99486 8.75772 18.5805 
369 1 4.21766 7.06207 19.0819 
370 10 3.97065 0.283636 -3.08088 
371 4 6.99572 0.30654 -3.1227 
372 4 3.75632 -2.66336 22.1713 
373 4 3.53006 0.330078 -0.0225436 
374 4 3.74813 3.32748 22.2283 
375 9 7.64517 -2.2264 -0.430822 
376 5 5.9235 -7.1454 -0.410504 
377 3 7.62281 -2.29607 -1.46251 
378 3 8.54743 -2.63366 -0.122117 
379 3 7.70665 -1.21735 -0.209215 
380 8 6.4298 -2.88867 0.22514 
381 2 6.48474 -2.68159 1.29645 
382 2 5.5205 -2.40133 -0.147374 
383 6 6.05615 -5.23555 1.09357 
384 5 5.85263 -6.61453 0.888799 
385 7 6.3293 -4.39028 0.0145675 
386 6 6.39619 -4.92896 -1.27962 
387 5 6.19636 -6.2994 -1.49236 
388 1 5.96286 -4.81961 2.09178 
389 1 5.62847 -7.25628 1.73766 
390 1 6.56817 -4.25745 -2.12317 
391 1 5.76397 -8.20774 -0.566971 
392 1 6.22561 -6.68442 -2.50742 
393 9 8.01647 2.65397 -0.289749 
394 5 6.46473 7.05887 1.63329 
395 3 7.99944 2.49097 0.729893 
396 3 8.94091 3.07502 -0.489775 
397 3 8.03893 1.73133 -0.74192 
398 8 6.83541 3.49837 -0.770177 
399 2 6.93612 3.67291 -1.84687 
400 2 5.92016 2.90704 -0.628184 
401 6 7.85491 5.52373 0.350358 
402 5 7.73259 6.64704 1.18855 
403 7 6.708 4.80026 -0.0178475 
404 6 5.44008 5.23276 0.394392 
405 5 5.3196 6.35788 1.22567 
406 1 8.84255 5.17812 0.0467571 
407 1 8.63308 7.1454 1.53628 
408 1 4.56279 4.63454 0.144826 
409 1 6.37031 7.8931 2.32062 
410 1 4.34105 6.62264 1.61826 
411 10 4.01079 0.477938 3.07316 
412 4 7.10944 0.36014 2.61055 
413 4 3.63206 -2.58887 3.23975 
414 4 4.22995 0.492848 6.33304 
415 4 3.33048 3.4585 3.22422 
416 9 7.15996 -1.92094 7.00322 
417 5 8.5839 -6.61221 5.72147 
418 3 8.19081 -1.9591 7.00529 
419 3 6.8601 -2.1926 7.95533 
420 3 6.89563 -0.927065 6.90812 
421 8 6.56669 -2.79494 5.90091 
422 2 5.4861 -2.85577 6.05614 
423 2 6.71484 -2.26877 4.94825 
424 6 7.47072 -4.88814 7.02058 
425 5 8.18171 -6.10365 6.96697 
426 7 7.18245 -4.18302 5.84295 
427 6 7.54733 -4.71797 4.60152 
428 5 8.2782 -5.9156 4.53964 
429 1 7.21951 -4.45823 7.98895 
430 1 8.47615 -6.59548 7.8895 
431 1 7.34472 -4.14309 3.70101 
432 1 9.17945 -7.51659 5.6727 
433 1 8.65606 -6.24765 3.57568 
434 9 7.10891 2.83352 6.93543 
435 5 6.89952 7.77191 6.04371 
436 3 6.26471 3.09619 7.47371 
437 3 7.9307 3.079 7.51314 
438 3 7.09642 1.79965 6.88823 
439 8 7.13571 3.47956 5.54896 
440 2 8.04545 3.16112 5.02756 
441 2 6.29755 3.07841 4.96705 
442 6 8.17857 5.79104 5.4427 
443 5 8.10933 7.18134 5.64693 
444 7 7.03706 4.99246 5.64556 
445 6 5.83447 5.58393 6.05618 
446 5 5.76042 6.97249 6.2654 
447 1 9.10807 5.3258 5.11675 
448 1 8.99333 7.78952 5.47671 
449 1 4.9548 4.96332 6.23498 
450 1 6.84071 8.84339 6.20309 
451 1 4.82871 7.41762 6.60719 
452 10 3.86244 0.520118 9.57792 
453 4 6.97868 0.456974 9.79966 
454 4 4.07796 -2.65166 9.12027 
455 4 3.55525 0.568422 12.6742 
456 4 3.90967 3.56854 9.29031 
457 9 7.83755 -2.00517 12.4078 
458 5 6.85224 -7.00787 12.0379 
459 3 7.83855 -1.96082 11.3777 
460 3 8.74838 -2.40534 12.693 
461 3 7.84822 -1.02658 12.7377 
462 8 6.63993 -2.77537 12.9325 
463 2 6.63795 -2.63275 14.0157 
464 2 5.72142 -2.32073 12.5331 
465 6 6.55328 -5.19343 13.6326 
466 5 6.6192 -6.56675 13.353 
467 7 6.69795 -4.25658 12.6098 
468 6 6.86519 -4.70304 11.2899 
469 5 6.94933 -6.07205 10.9972 
470 1 6.38765 -4.84469 14.6497 
471 1 6.48937 -7.28519 14.1573 
472 1 6.93353 -3.96778 10.4889 
473 1 6.91726 -8.07163 11.8287 
474 1 7.08563 -6.39092 9.96855 
475 9 8.01437 2.77767 12.5948 
476 5 6.63798 7.21801 14.5589 
477 3 8.00646 2.7318 13.6273 
478 3 8.97072 3.06101 12.3229 
479 3 7.89731 1.81368 12.2472 
480 8 6.94208 3.7167 12.0597 
481 2 7.1193 3.89449 10.9919 
482 2 5.98863 3.17603 12.1226 
483 6 7.98621 5.73984 13.189 
484 5 7.8957 6.83559 14.0619 
485 7 6.841 5.00343 12.847 
486 6 5.59439 5.37462 13.3549 
487 5 5.49711 6.4633 14.2304 
488 1 8.96172 5.40823 12.8421 
489 1 8.79852 7.35305 14.3742 
490 1 4.73026 4.7502 13.1415 
491 1 6.55237 8.04431 15.2572 
492 1 4.53524 6.67593 14.6911 
493 10 10.2449 0.441472 15.8541 
494 4 13.268 0.307044 16.0137 
495 4 9.94109 -2.60732 15.4892 
496 4 9.8615 0.241681 18.957 
497 4 10.3772 3.49155 15.5969 
498 9 14.1695 -2.14775 18.7546 
499 5 12.5739 -6.53281 20.4875 
500 3 15.1135 -2.52131 18.5392 
501 3 14.1028 -2.1263 19.7875 
502 3 14.193 -1.16562 18.4402 
503 8 13.0358 -2.95828 18.1177 
504 2 12.1151 -2.36711 18.2012 
505 2 13.2343 -3.09274 17.0496 
506 6 11.5947 -4.66043 19.2885 
507 5 11.4402 -5.79149 20.1059 
508 7 12.8616 -4.28922 18.8168 
509 6 13.9827 -5.07657 19.1249 
510 5 13.8394 -6.1861 19.9792 
511 1 10.7351 -4.02732 19.0658 
512 1 10.4625 -6.01577 20.5228 
513 1 14.9714 -4.75907 18.7919 
514 1 12.4711 -7.34756 21.1971 
515 1 14.7278 -6.72957 20.2884 
516 9 14.2587 2.63342 19.006 
517 5 13.0248 7.41428 20.269 
518 3 14.3144 2.67161 20.0387 
519 3 15.1983 2.87988 18.6442 
520 3 14.12 1.63719 18.7668 
521 8 13.1312 3.50511 18.4621 
522 2 13.2491 3.56099 17.3758 
523 2 12.1832 2.98799 18.6675 
524 6 14.2825 5.6106 19.2256 
525 5 14.2469 6.87298 19.8319 
526 7 13.0916 4.89366 19.0519 
527 6 11.8658 5.46122 19.4396 
528 5 11.8317 6.71062 20.0769 
529 1 15.2379 5.16928 18.9343 
530 1 15.1736 7.41054 20.0017 
531 1 10.9497 4.88838 19.303 
532 1 13.0084 8.36954 20.7828 
533 1 10.8848 7.09965 20.4407 
534 10 10.2409 0.140377 22.1202 
535 4 13.5237 0.175465 21.712 
536 4 9.79042 -2.90628 22.1924 
537 4 10.6007 0.207405 -0.349152 
538 4 9.97664 3.2701 22.1686 
539 9 13.504 -2.09024 0.349587 
540 5 13.6494 -7.01147 -0.668536 
541 3 14.4083 -2.25747 0.832601 
542 3 12.7526 -2.44815 0.96186 
543 3 13.3976 -1.06341 0.307228 
544 8 13.4577 -2.71299 -1.03818 
545 2 12.5465 -2.38372 -1.54416 
546 2 14.2985 -2.33571 -1.62865 
547 6 12.3445 -4.96167 -0.724752 
548 5 12.4077 -6.36016 -0.574387 
549 7 13.5082 -4.21712 -0.955113 
550 6 14.7432 -4.87032 -1.05152 
551 5 14.8127 -6.26317 -0.933791 
552 1 11.3834 -4.44693 -0.658471 
553 1 11.4979 -6.92116 -0.379897 
554 1 15.6473 -4.28327 -1.20679 
555 1 13.7133 -8.08782 -0.539565 
556 1 15.7757 -6.75275 -1.02595 
557 9 13.5609 2.63831 0.435267 
558 5 14.5527 7.42329 -1.29468 
559 3 13.0154 3.18424 1.12325 
560 3 14.522 2.56144 0.809557 
561 3 13.1683 1.68243 0.461607 
562 8 13.5223 3.23824 -0.971813 
563 2 14.2001 2.67181 -1.6228 
564 2 12.5188 3.07187 -1.3609 
565 6 15.2034 5.12472 -0.834053 
566 5 15.5368 6.48436 -0.9401 
567 7 13.8731 4.71209 -1.04038 
568 6 12.8856 5.65587 -1.3546 
569 5 13.2229 7.01248 -1.50271 
570 1 15.9624 4.37489 -0.60133 
571 1 16.5665 6.78983 -0.774422 
572 1 11.8603 5.33552 -1.51784 
573 1 14.8096 8.47345 -1.38839 
574 1 12.456 7.73849 -1.76176 
575 10 10.2998 0.128213 2.9255 
576 4 13.5266 0.18125 3.1773 
577 4 10.1765 -2.83393 2.46595 
578 4 9.82112 0.372913 6.19378 
579 4 10.3606 3.1939 2.57228 
580 9 14.2744 -2.18079 6.13487 
581 5 12.735 -6.78566 7.44861 
582 3 14.9478 -2.66148 5.51041 
583 3 14.6543 -2.23773 7.09799 
584 3 14.3228 -1.18201 5.87697 
585 8 12.8418 -2.71253 6.01821 
586 2 12.1874 -2.07009 6.61886 
587 2 12.5146 -2.62382 4.97721 
588 6 13.0898 -4.41748 7.82155 
589 5 13.0929 -5.73155 8.30594 
590 7 12.7202 -4.13387 6.50059 
591 6 12.3119 -5.17221 5.65276 
592 5 12.3336 -6.4952 6.12879 
593 1 13.3697 -3.59769 8.4859 
594 1 13.3861 -5.92559 9.33237 
595 1 11.9923 -4.94457 4.63734 
596 1 12.7517 -7.80821 7.81496 
597 1 12.0381 -7.2998 5.46386 
598 9 14.3443 2.54401 6.18854 
599 5 12.5321 7.05409 7.38807 
600 3 14.3022 2.67485 7.21405 
601 3 15.2881 2.85285 5.8907 
602 3 14.3115 1.52726 6.01771 
603 8 13.2217 3.26988 5.47202 
604 2 13.4391 3.33567 4.40092 
605 2 12.3127 2.66525 5.58231 
606 6 14.0801 5.48419 6.35067 
607 5 13.8471 6.68455 7.04012 
608 7 12.9976 4.63561 6.05293 
609 6 11.6989 4.97852 6.42555 
610 5 11.46 6.19072 7.09912 
611 1 15.0971 5.16889 6.11078 
612 1 14.6884 7.30781 7.33001 
613 1 10.8808 4.27763 6.258 
614 1 12.3572 7.96311 7.9542 
615 1 10.454 6.40377 7.45629 
616 10 10.501 0.397222 9.24798 
617 4 13.4956 0.215191 8.86765 
618 4 9.93887 -2.54868 9.40532 
619 4 10.6593 0.331734 12.6043 
620 4 10.1895 3.27931 9.52698 
621 9 13.3652 -2.01927 13.2626 
622 5 12.9939 -6.95013 12.1747 
623 3 14.0285 -2.42414 13.9401 
624 3 12.4219 -2.09068 13.6876 
625 3 13.5731 -1.00754 13.2168 
626 8 13.4447 -2.66557 11.884 
627 2 12.6812 -2.20534 11.2508 
628 2 14.4115 -2.39883 11.4409 
629 6 12.0074 -4.72079 12.1863 
630 5 11.8665 -6.11571 12.3091 
631 7 13.2712 -4.16756 11.927 
632 6 14.3912 -4.99401 11.7845 
633 5 14.254 -6.38777 11.8947 
634 1 11.1459 -4.06383 12.3229 
635 1 10.8889 -6.52944 12.5425 
636 1 15.3654 -4.54607 11.593 
637 1 12.8931 -8.02473 12.2931 
638 1 15.1337 -7.01786 11.7855 
639 9 13.3502 2.79672 13.3272 
640 5 12.9186 7.69941 11.7218 
641 3 12.3349 2.74265 13.5025 
642 3 13.7633 3.276 14.1469 
643 3 13.6979 1.82456 13.3686 
644 8 13.6863 3.45703 11.994 
645 2 14.7484 3.28028 11.792 
646 2 13.1332 2.93432 11.2026 
647 6 14.4589 5.8224 11.6063 
648 5 14.2158 7.19591 11.502 
649 7 13.4155 4.94338 11.9461 
650 6 12.1272 5.44669 12.1735 
651 5 11.8637 6.81822 12.0355 
652 1 15.4501 5.42243 11.4059 
653 1 15.0298 7.86 11.2275 
654 1 11.3201 4.75813 12.4143 
655 1 12.7265 8.76397 11.6235 
656 1 10.8512 7.1894 12.1769 
ITEM: TIMESTEP
11000
ITEM: NUMBER OF ATOMS
656
ITEM: BOX BOUNDS pp pp pp
-3.2688672118424336e+00 2.2468867211842451e+01
-4.3779677730546460e+01 4.3779677730546460e+01
-3.1200344677157368e+00 2.2320034467715747e+01
ITEM: ATOMS id type x y z 
1 10 14.7712 -0.131964 13.4616 
2 4 17.7891 0.099699 12.6553 
3 4 14.1633 -3.0949 13.7182 
4 4 14.8428 -0.0676195 16.3552 
5 4 14.439 2.88178 13.3022 
6 9 17.4635 -2.39737 17.2546 
7 5 18.0569 -7.2884 16.3956 
8 3 17.9668 -2.70954 18.1043 
9 3 16.4607 -2.62179 17.3966 
10 3 17.5267 -1.36637 17.2598 
11 8 18.0435 -2.9913 15.9685 
12 2 17.4759 -2.60966 15.111 
13 2 19.0749 -2.64994 15.8485 
14 6 16.854 -5.17776 16.3882 
15 5 16.8815 -6.55853 16.6271 
16 7 18.0315 -4.50278 16.009 
17 6 19.2137 -5.23177 15.825 
18 5 19.2122 -6.63423 15.942 
19 1 15.9393 -4.60404 16.54 
20 1 15.9798 -7.05583 16.9726 
21 1 20.1429 -4.72118 15.5794 
22 1 18.0712 -8.363 16.5521 
23 1 20.1319 -7.18713 15.7706 
24 9 17.6359 2.45319 17.2729 
25 5 18.6433 7.39275 17.0854 
26 3 17.4092 2.68705 18.2552 
27 3 18.662 2.4603 17.2298 
28 3 17.3278 1.48071 17.1164 
29 8 17.0476 3.44563 16.3035 
30 2 17.3094 3.13153 15.2824 
31 2 15.9589 3.40201 16.3912 
32 6 18.9455 5.03216 16.4991 
33 5 19.4674 6.30634 16.7586 
34 7 17.5651 4.83552 16.5813 
35 6 16.7226 5.89578 16.9159 
36 5 17.2538 7.18991 17.1482 
37 1 19.6133 4.19589 16.2733 
38 1 20.5448 6.41581 16.7656 
39 1 15.6554 5.71631 17.0363 
40 1 19.068 8.36749 17.3099 
41 1 16.5947 8.0077 17.4304 
42 10 14.2624 0.238137 19.8042 
43 4 17.47 0.0530092 20.0289 
44 4 14.1974 -2.92843 19.474 
45 4 14.3074 0.334717 -2.5018 
46 4 14.4332 3.17558 19.451 
47 9 18.2099 -2.14851 -2.50643 
48 5 17.1783 -7.15575 -2.84535 
49 3 18.8295 -2.25622 22.1087 
50 3 18.7313 -2.44009 -1.66733 
51 3 18.0668 -1.12789 -2.40957 
52 8 16.8648 -2.85327 -2.63718 
53 2 16.1971 -2.53109 -1.83396 
54 2 16.4127 -2.51786 21.873 
55 6 16.4604 -5.15112 -1.65563 
56 5 16.5279 -6.55606 -1.74606 
57 7 16.9853 -4.34616 -2.6686 
58 6 17.6197 -4.94585 21.6752 
59 5 17.7227 -6.3344 21.5978 
60 1 15.9179 -4.68547 -0.834575 
61 1 16.0661 -7.17298 -0.980297 
62 1 18.0118 -4.30513 20.889 
63 1 17.2454 -8.23734 -2.92791 
64 1 18.2334 -6.77005 20.7465 
65 9 18.0595 2.65185 22.3083 
66 5 17.0551 7.74247 -3.00857 
67 3 19.0392 2.94169 -2.94885 
68 3 17.9109 2.71168 21.2917 
69 3 18.0302 1.64688 -2.89033 
70 8 17.0368 3.46912 -2.36199 
71 2 16.0355 3.1025 -2.60158 
72 2 17.2133 3.27995 -1.29639 
73 6 17.1332 5.48082 21.5111 
74 5 17.1282 6.88272 21.3289 
75 7 17.1009 4.95734 -2.62881 
76 6 17.1156 5.81533 -1.52449 
77 5 17.0576 7.21272 -1.70797 
78 1 17.1366 4.81877 20.6448 
79 1 17.1411 7.28581 20.3207 
80 1 17.1185 5.39879 -0.514913 
81 1 17.011 8.81733 22.2959 
82 1 17.0032 7.86083 -0.838012 
83 10 14.2934 0.601627 0.559611 
84 4 17.6043 0.0341233 0.469541 
85 4 13.7869 -2.4424 0.501768 
86 4 14.4347 0.544035 3.69204 
87 4 14.2932 3.46028 0.324913 
88 9 18.2523 -2.03549 3.37675 
89 5 18.9054 -6.87863 4.25329 
90 3 19.0607 -2.02292 2.72438 
91 3 18.6341 -2.19219 4.32866 
92 3 17.8717 -1.07605 3.37714 
93 8 17.209 -3.08117 2.97594 
94 2 16.2583 -2.8462 3.4835 
95 2 17.0334 -3.02846 1.89222 
96 6 17.8202 -4.76332 4.77921 
97 5 18.3644 -5.98849 5.20079 
98 7 17.7508 -4.43413 3.41291 
99 6 18.4237 -5.26409 2.48521 
100 5 18.9989 -6.48228 2.91315 
101 1 17.477 -4.05664 5.54048 
102 1 18.3857 -6.22544 6.26253 
103 1 18.5098 -4.93836 1.44684 
104 1 19.3234 -7.82106 4.58755 
105 1 19.4797 -7.1214 2.17973 
106 9 17.4959 2.24069 4.24122 
107 5 18.7373 7.06066 4.52816 
108 3 16.8494 2.52673 4.99025 
109 3 18.4146 2.11914 4.6972 
110 3 17.2217 1.2988 3.93402 
111 8 17.5507 3.21343 3.06975 
112 2 18.2145 2.79512 2.30754 
113 2 16.5512 3.26795 2.64326 
114 6 19.37 4.9502 3.50969 
115 5 19.7358 6.18225 4.07097 
116 7 18.0224 4.58081 3.45035 
117 6 17.0379 5.4437 3.89103 
118 5 17.3797 6.68838 4.43382 
119 1 20.128 4.2248 3.21134 
120 1 20.7908 6.39834 4.21893 
121 1 16.0064 5.09121 3.9028 
122 1 19.0057 7.98806 5.02377 
123 1 16.5932 7.31605 4.84224 
124 10 14.4115 -0.100274 6.88256 
125 4 17.5105 -0.372985 6.59852 
126 4 14.2928 -3.16747 6.73617 
127 4 14.0425 -0.125703 10.1446 
128 4 14.8189 3.08674 7.00245 
129 9 18.5478 -2.16745 9.81258 
130 5 18.1144 -6.32292 12.3909 
131 3 19.4307 -2.20297 9.26929 
132 3 18.8084 -2.23388 10.8147 
133 3 18.1662 -1.21693 9.67722 
134 8 17.5691 -3.26058 9.38993 
135 2 16.5513 -2.85447 9.47868 
136 2 17.714 -3.47537 8.32173 
137 6 16.6738 -4.84125 11.1351 
138 5 16.821 -5.81818 12.1294 
139 7 17.7342 -4.47443 10.2866 
140 6 19.005 -5.05414 10.4855 
141 5 19.1873 -5.96581 11.5385 
142 1 15.7195 -4.33623 11.0218 
143 1 15.9894 -6.01308 12.8051 
144 1 19.862 -4.69015 9.91522 
145 1 18.273 -6.95405 13.2605 
146 1 20.1964 -6.29161 11.7661 
147 9 18.6905 2.81697 10.0844 
148 5 18.4282 7.71629 11.4219 
149 3 18.6619 2.75958 11.117 
150 3 19.6611 3.04628 9.80994 
151 3 18.5144 1.86568 9.72499 
152 8 17.7182 3.86561 9.58586 
153 2 17.7204 3.88851 8.49568 
154 2 16.7246 3.51082 9.89117 
155 6 19.1319 5.93738 9.9098 
156 5 19.3972 7.14178 10.5792 
157 7 17.943 5.243 10.1641 
158 6 17.0358 5.73497 11.1082 
159 5 17.2581 6.98706 11.7059 
160 1 19.8685 5.49732 9.23763 
161 1 20.3465 7.63819 10.4105 
162 1 16.1594 5.14877 11.3787 
163 1 18.6137 8.65938 11.927 
164 1 16.5654 7.35103 12.4598 
165 10 20.8029 0.2255 13.2562 
166 4 -1.52318 0.375719 13.4047 
167 4 21.2169 -2.76673 12.9257 
168 4 20.3758 0.327034 16.459 
169 4 20.8634 3.14913 13.0399 
170 9 -0.973834 -1.92091 16.1951 
171 5 -1.04398 -6.84711 16.0191 
172 3 -0.749346 -1.92592 15.1853 
173 3 -0.120201 -2.26613 16.6622 
174 3 -1.05624 -0.938803 16.5044 
175 8 -2.18137 -2.74272 16.5695 
176 2 -2.30466 -2.59017 17.6486 
177 2 -3.06711 -2.34388 16.0571 
178 6 -2.01717 -5.07835 17.3664 
179 5 -1.59548 -6.40875 17.2365 
180 7 -1.93365 -4.20268 16.2807 
181 6 -1.41732 -4.63849 15.0382 
182 5 -0.947105 -5.9639 14.9251 
183 1 -2.36036 -4.71012 18.3282 
184 1 -1.64872 -7.07483 18.0942 
185 1 -1.33408 -3.94239 14.1984 
186 1 -0.694057 -7.8712 15.9311 
187 1 -0.51045 -6.30362 13.992 
188 9 -0.919623 2.89245 16.4108 
189 5 -2.58444 7.5854 17.1655 
190 3 -0.545657 2.5499 17.3154 
191 3 -0.281083 3.65136 16.1203 
192 3 -0.779215 2.14117 15.7156 
193 8 -2.37374 3.33636 16.4994 
194 2 -2.85042 3.08562 15.5558 
195 2 -2.90303 2.76061 17.2573 
196 6 -2.43579 5.33079 18.0679 
197 5 -2.54078 6.72061 18.2758 
198 7 -2.4773 4.81497 16.7662 
199 6 -2.59835 5.6746 15.6737 
200 5 -2.66164 7.06132 15.8618 
201 1 -2.32469 4.64956 18.9124 
202 1 -2.50017 7.1181 19.2871 
203 1 -2.65626 5.25507 14.6682 
204 1 -2.58784 8.65977 17.3167 
205 1 -2.74407 7.72367 15.0036 
206 10 20.9194 0.34489 19.318 
207 4 -1.84764 0.532483 19.5097 
208 4 20.6221 -2.8147 19.4738 
209 4 20.829 0.21893 -2.80879 
210 4 20.4377 3.12251 19.6132 
211 9 -1.43745 -1.73545 -2.27535 
212 5 -0.616756 -6.70403 -2.0618 
213 3 -0.41857 -1.89761 -2.37658 
214 3 -1.62238 -1.69145 -1.25678 
215 3 -1.61263 -0.788325 -2.64968 
216 8 -2.26722 -2.79535 -3.01928 
217 2 22.4096 -2.68521 -2.76625 
218 2 -2.17211 -2.57903 21.345 
219 6 -1.42539 -4.50298 -1.38165 
220 5 -0.831703 -5.73971 -1.05879 
221 7 -1.79739 -4.20446 -2.68708 
222 6 -1.64319 -5.1883 21.7538 
223 5 -1.05716 -6.43695 22.0692 
224 1 -1.57441 -3.78188 -0.583464 
225 1 -0.51757 -5.91042 -0.0284335 
226 1 -1.93723 -4.94365 20.7372 
227 1 -0.163217 -7.65418 -1.79603 
228 1 -0.943551 -7.18679 21.2941 
229 9 -2.32744 2.78772 -2.9176 
230 5 -2.69177 7.78993 -1.88896 
231 3 -3.25386 2.70391 22.0672 
232 3 -2.507 2.92983 -1.90474 
233 3 -1.87326 1.86026 -2.98965 
234 8 -1.46734 3.90524 21.9232 
235 2 -0.431534 3.71829 22.2403 
236 2 -1.50266 3.79509 20.8359 
237 6 -0.97356 6.17092 -2.5226 
238 5 -1.35305 7.38012 -1.90871 
239 7 -1.91434 5.31213 -3.06905 
240 6 -3.25655 5.73916 -3.05085 
241 5 22.0681 6.97833 -2.48698 
242 1 0.0621463 5.847 -2.4728 
243 1 -0.585259 7.94941 -1.39326 
244 1 21.7145 5.06587 22.0164 
245 1 -2.98138 8.70683 -1.38783 
246 1 21.0128 7.25085 -2.46089 
247 10 20.863 0.47129 0.292764 
248 4 -1.68429 0.921855 0.389301 
249 4 20.8518 -2.66376 0.275331 
250 4 20.7615 0.494404 3.44227 
251 4 20.5698 3.14585 -0.238388 
252 9 -0.981952 -1.54166 3.61079 
253 5 -0.407573 -6.67124 4.36387 
254 3 -0.0802518 -1.39545 3.12448 
255 3 -0.760494 -1.63615 4.61733 
256 3 -1.52979 -0.669802 3.51565 
257 8 -1.73938 -2.74961 3.07421 
258 2 -2.76774 -2.66073 3.45288 
259 2 -1.80041 -2.64396 1.982 
260 6 -2.14458 -5.11263 3.67032 
261 5 -1.75795 -6.39054 4.10847 
262 7 -1.17164 -4.11946 3.45454 
263 6 0.20209 -4.42543 3.65897 
264 5 0.588612 -5.6937 4.13412 
265 1 -3.20211 -4.87683 3.52257 
266 1 -2.51809 -7.14942 4.28239 
267 1 0.956372 -3.65856 3.48826 
268 1 -0.116573 -7.64243 4.75232 
269 1 1.63096 -5.89645 4.37432 
270 9 -1.21057 2.80858 3.51128 
271 5 -1.51181 7.79825 3.51739 
272 3 -0.774012 2.81496 4.45286 
273 3 -0.48376 3.12585 2.84197 
274 3 -1.38192 1.81507 3.29546 
275 8 -2.48958 3.61948 3.40969 
276 2 -2.97262 3.37479 2.45519 
277 2 -3.15935 3.30171 4.21503 
278 6 -2.40638 5.87359 2.34666 