ITEM: TIMESTEP
110000
ITEM: NUMBER OF ATOMS
656
ITEM: BOX BOUNDS pp pp pp
-2.8454262767626695e+00 2.2045426276762893e+01
-4.3779677730546460e+01 4.3779677730546460e+01
-2.8097268584203157e+00 2.2009726858420642e+01
ITEM: ATOMS id type x y z 
1 10 14.4906 0.368515 13.2446 
2 4 17.4667 0.443516 12.8232 
3 4 14.2391 -2.52428 13.0335 
4 4 14.3571 0.226449 16.3603 
5 4 13.93 3.37844 13.4833 
6 9 17.3537 -1.97757 16.8794 
7 5 16.5466 -6.80116 15.5906 
8 3 17.4938 -0.961471 16.7384 
9 3 17.5651 -2.14841 17.9029 
10 3 16.2891 -2.15101 16.8917 
11 8 18.0492 -2.73812 15.7881 
12 2 18.1049 -2.13895 14.8628 
13 2 19.1239 -2.8811 16.0349 
14 6 16.1798 -4.49387 15.8461 
15 5 15.6181 -5.75749 15.7953 
16 7 17.5619 -4.13762 15.6204 
17 6 18.4602 -5.25606 15.5341 
18 5 17.9004 -6.54137 15.5594 
19 1 15.5102 -3.66542 15.9419 
20 1 14.536 -5.9561 15.9137 
21 1 19.5292 -5.03375 15.4667 
22 1 16.2015 -7.82381 15.5268 
23 1 18.5134 -7.45057 15.517 
24 9 17.0449 2.81976 16.8363 
25 5 17.9802 7.72143 17.2577 
26 3 16.9735 1.77066 16.5652 
27 3 16.0271 3.02674 16.9854 
28 3 17.6187 2.83911 17.6981 
29 8 17.5956 3.69566 15.6532 
30 2 18.6006 3.35539 15.4637 
31 2 16.9641 3.60605 14.7431 
32 6 16.5269 5.88226 16.5665 
33 5 16.7189 7.1452 17.1984 
34 7 17.6508 5.18292 15.9719 
35 6 18.9228 5.84286 16.0544 
36 5 19.0738 7.06853 16.6918 
37 1 15.5148 5.38985 16.4953 
38 1 15.815 7.52041 17.6595 
39 1 19.8237 5.2301 15.9373 
40 1 18.2574 8.66611 17.6682 
41 1 20.0363 7.37743 16.9372 
42 10 14.2994 0.429082 19.2848 
43 4 17.3153 0.321127 19.53 
44 4 14.2384 -2.68449 19.109 
45 4 13.9878 0.442235 -2.3844 
46 4 14.5175 3.41986 19.3742 
47 9 18.327 -2.01577 -2.21101 
48 5 17.7524 -6.88427 -1.68807 
49 3 19.0936 -2.49609 -2.62525 
50 3 18.6057 -1.89213 -1.17728 
51 3 18.3281 -1.09245 -2.71602 
52 8 16.9945 -2.64004 -2.42577 
53 2 16.3857 -2.15801 -1.58885 
54 2 16.6064 -2.41275 21.3964 
55 6 17.4401 -5.03146 21.5171 
56 5 17.567 -6.38409 21.7816 
57 7 17.2206 -4.14016 -2.22658 
58 6 17.3763 -4.61261 -0.908992 
59 5 17.5759 -5.97833 -0.633166 
60 1 17.3693 -4.55446 20.4901 
61 1 17.6188 -7.08709 20.9534 
62 1 17.306 -3.8651 -0.0894668 
63 1 17.9888 -7.94752 -1.56175 
64 1 17.6515 -6.3241 0.390622 
65 9 16.6593 2.87883 -1.98624 
66 5 16.5808 7.88724 -2.64525 
67 3 16.5146 3.01899 -0.938039 
68 3 16.8253 1.86667 -2.17067 
69 3 15.738 3.05191 -2.50096 
70 8 17.8692 3.69394 -2.45668 
71 2 18.8057 3.42139 -1.92675 
72 2 18.0632 3.45196 21.316 
73 6 17.4381 6.01036 -1.35646 
74 5 17.0293 7.37765 -1.41447 
75 7 17.552 5.17735 -2.50765 
76 6 17.309 5.83004 21.074 
77 5 16.776 7.10084 21.0593 
78 1 17.5429 5.57437 -0.383825 
79 1 16.8663 7.85728 -0.464564 
80 1 17.337 5.17501 20.1864 
81 1 16.1907 8.86388 -2.72395 
82 1 16.3292 7.42311 20.1729 
83 10 14.3039 0.649513 0.929202 
84 4 17.4608 0.524089 0.629603 
85 4 14.3146 -2.62475 1.01041 
86 4 14.1839 0.603608 3.91245 
87 4 14.1969 3.58127 0.503729 
88 9 16.9427 -2.10405 4.18638 
89 5 17.3715 -7.119 3.70713 
90 3 16.0106 -2.38266 4.00492 
91 3 17.0467 -1.07129 4.26262 
92 3 17.0694 -2.42013 5.17879 
93 8 17.9113 -2.74923 3.25817 
94 2 17.625 -2.48123 2.21649 
95 2 18.9508 -2.42293 3.3989 
96 6 18.7374 -5.17815 3.19637 
97 5 18.5967 -6.57725 3.39425 
98 7 17.6925 -4.26888 3.44012 
99 6 16.4144 -4.84691 3.68216 
100 5 16.2844 -6.28514 3.84747 
101 1 19.7302 -4.70299 3.04568 
102 1 19.4856 -7.27951 3.24882 
103 1 15.5621 -4.18148 3.92509 
104 1 17.271 -8.19462 3.87589 
105 1 15.3025 -6.71474 3.98355 
106 9 17.5505 3.3584 4.74915 
107 5 15.9524 8.09828 3.90927 
108 3 18.5636 3.69307 4.73364 
109 3 17.5612 2.35122 4.91219 
110 3 17.0665 3.81751 5.57609 
111 8 16.8539 3.86355 3.54383 
112 2 17.2873 3.49206 2.60631 
113 2 15.8919 3.40143 3.57378 
114 6 17.5503 6.23137 3.41595 
115 5 17.2455 7.62492 3.57535 
116 7 16.5031 5.36369 3.56466 
117 6 15.2245 5.81637 3.85328 
118 5 14.9366 7.18977 3.87832 
119 1 18.5916 5.88428 3.20253 
120 1 18.0645 8.36978 3.48604 
121 1 14.3908 5.09534 3.88248 
122 1 15.6771 9.14229 4.03934 
123 1 13.9301 7.43742 3.97698 
124 10 13.9645 0.495082 6.9399 
125 4 17.5358 0.172338 6.97446 
126 4 14.3782 -2.62021 6.65107 
127 4 14.1578 0.597342 10.0096 
128 4 14.4782 3.53765 7.00525 
129 9 16.7747 -1.86252 9.89811 
130 5 17.0352 -7.11127 10.517 
131 3 16.4835 -1.91209 8.95456 
132 3 17.0921 -0.904002 10.0382 
133 3 15.8886 -1.89968 10.4119 
134 8 17.8576 -2.81129 10.4205 
135 2 18.7301 -2.65954 9.74013 
136 2 18.1862 -2.44144 11.4132 
137 6 17.3573 -4.97164 11.7276 
138 5 17.0821 -6.34814 11.7242 
139 7 17.5086 -4.32201 10.4916 
140 6 17.4094 -5.04872 9.30119 
141 5 17.3527 -6.48887 9.25766 
142 1 17.3934 -4.36392 12.6037 
143 1 17.1823 -6.87262 12.6664 
144 1 17.6714 -4.49528 8.43379 
145 1 17.0059 -8.20343 10.4702 
146 1 17.4864 -6.98331 8.3581 
147 9 17.3969 2.97475 9.42386 
148 5 18.814 7.88506 10.6577 
149 3 16.7726 2.12622 9.45594 
150 3 18.3054 2.73244 9.79279 
151 3 17.5196 3.39318 8.47066 
152 8 16.8025 4.01826 10.435 
153 2 15.7367 4.1937 10.0606 
154 2 16.807 3.6274 11.4844 
155 6 17.7459 6.10837 9.32592 
156 5 18.465 7.31537 9.39131 
157 7 17.4683 5.37176 10.502 
158 6 17.7861 5.90251 11.741 
159 5 18.517 7.12363 11.783 
160 1 17.5214 5.87118 8.30668 
161 1 18.6404 7.84623 8.50391 
162 1 17.6172 5.40829 12.6823 
163 1 19.4222 8.78556 10.6936 
164 1 18.9111 7.48444 12.744 
165 10 20.422 0.39301 13.0158 
166 4 -1.29545 0.432633 13.0117 
167 4 20.9391 -2.57464 13.0224 
168 4 20.2386 0.570221 16.0802 
169 4 20.6223 3.46987 12.6902 
170 9 -1.05127 -1.99186 15.7867 
171 5 -0.623524 -7.08371 16.3221 
172 3 -0.0593757 -2.06244 15.9459 
173 3 -1.30205 -1.01312 16.0031 
174 3 -1.25195 -2.09974 14.7265 
175 8 -1.8793 -2.99254 16.5996 
176 2 -1.92581 -2.62255 17.6043 
177 2 21.9939 -2.83802 16.2889 
178 6 -1.35834 -5.15822 17.6625 
179 5 -1.15665 -6.56356 17.5242 
180 7 -1.39892 -4.41973 16.5057 
181 6 -0.902835 -4.94588 15.3161 
182 5 -0.564207 -6.2679 15.2298 
183 1 -1.59415 -4.69043 18.6212 
184 1 -1.00289 -7.17255 18.4041 
185 1 -0.937855 -4.4014 14.3156 
186 1 -0.290244 -8.1068 16.1552 
187 1 -0.188184 -6.63598 14.267 
188 9 -1.67675 3.03064 15.7628 
189 5 -2.21854 8.02522 15.4105 
190 3 -1.66183 3.10361 14.7254 
191 3 -2.73771 3.03599 15.9597 
192 3 -1.42027 2.00885 16.0443 
193 8 -0.758409 4.0771 16.4482 
194 2 -0.70634 4.02572 17.4982 
195 2 0.224955 3.86501 16.1414 
196 6 -1.78133 6.32431 17.1008 
197 5 -2.33308 7.55002 16.7483 
198 7 -1.286 5.44328 16.0995 
199 6 -1.34708 5.85779 14.7231 
200 5 -1.85834 7.10167 14.3694 
201 1 -1.85679 5.85843 18.0828 
202 1 -2.83729 8.10556 17.5484 
203 1 -0.996568 5.18446 13.9316 
204 1 -2.5707 9.01468 15.2228 
205 1 -1.8728 7.35726 13.3516 
206 10 20.4962 0.537816 18.9495 
207 4 -1.42404 0.688849 18.695 
208 4 20.1597 -2.67287 19.3075 
209 4 20.887 0.580367 -2.45566 
210 4 20.3853 3.51251 18.7635 
211 9 -1.11421 -1.86006 -1.86947 
212 5 -1.09493 -6.9833 -2.55249 
213 3 -0.134845 -2.12209 -1.80608 
214 3 -1.60355 -1.88012 -0.973583 
215 3 -1.11298 -0.89508 -2.06336 
216 8 -1.7983 -2.76734 21.8665 
217 2 -2.84412 -2.50135 21.9394 
218 2 -1.38542 -2.51595 20.9023 
219 6 -2.61615 -5.12346 21.9659 
220 5 -2.42123 -6.5054 -2.80259 
221 7 -1.53539 -4.23091 22.0038 
222 6 -0.218792 -4.67606 -2.63649 
223 5 0.0060559 -6.06587 -2.38968 
224 1 21.1853 -4.84179 21.9295 
225 1 21.6448 -7.16199 -2.73763 
226 1 0.569702 -3.95926 -2.47134 
227 1 -1.00111 -7.99432 -2.36609 
228 1 1.0353 -6.41375 -2.21968 
229 9 -1.51525 3.04535 -1.70619 
230 5 -2.37747 7.71922 21.4535 
231 3 -1.25935 3.46456 -0.811326 
232 3 -1.17127 2.04678 -1.63895 
233 3 -2.47911 3.09511 -1.75854 
234 8 -0.917975 3.72838 21.8247 
235 2 0.15218 3.76577 -2.76243 
236 2 -1.13948 3.14274 20.8811 
237 6 -0.504626 6.10792 21.2933 
238 5 -1.02291 7.39506 21.116 
239 7 -1.42088 5.12849 21.6962 
240 6 -2.80112 5.34502 21.8492 
241 5 21.5696 6.64276 21.7472 
242 1 0.549344 5.851 21.0726 
243 1 -0.358409 8.23596 20.8409 
244 1 21.4555 4.47554 -2.80503 
245 1 -2.61006 8.74982 21.42 
246 1 20.4822 6.81898 21.8587 
247 10 20.466 0.689438 0.810984 
248 4 -1.19885 0.423275 1.03298 
249 4 20.7325 -2.41931 0.700073 
250 4 20.5812 0.704014 3.94687 
251 4 20.6448 3.65667 0.65661 
252 9 -1.77014 -2.07365 3.44852 
253 5 -0.982819 -6.95925 2.68897 
254 3 -2.7734 -2.32887 3.77069 
255 3 -1.65366 -2.06771 2.4415 
256 3 -1.75348 -1.04293 3.78454 
257 8 -0.714397 -2.95238 4.17767 
258 2 0.245886 -2.48777 4.08443 
259 2 -0.896148 -3.13503 5.19334 
260 6 -0.929936 -4.61133 2.25983 
261 5 -0.992229 -5.93432 1.73122 
262 7 -0.784513 -4.37305 3.64905 
263 6 -0.690814 -5.4551 4.49709 
264 5 -0.820781 -6.76121 4.09272 
265 1 -0.95648 -3.69287 1.62872 
266 1 -1.17628 -6.04821 0.661042 
267 1 -0.518944 -5.21453 5.55094 
268 1 -1.08537 -7.92245 2.42414 
269 1 -0.903362 -7.53219 4.79446 
270 9 -1.54216 2.89019 4.61058 
271 5 -1.43969 7.91667 3.89688 
272 3 -1.61445 1.92159 4.44515 
273 3 -2.52645 3.07376 4.82538 
274 3 -0.957384 2.96206 5.46808 
275 8 -0.886441 3.72233 3.51588 
276 2 0.186514 3.53711 3.58224 
277 2 -1.17671 3.54559 2.47472 
278 6 -1.45021 5.89117 2.61323 
279 5 -1.53283 7.26732 2.68961 
280 7 -1.17831 5.13308 3.72226 
281 6 -1.21235 5.76134 4.99148 
282 5 -1.24445 7.1415 5.06456 
283 1 -1.48423 5.45292 1.63939 
284 1 -1.75877 7.83849 1.8312 
285 1 -1.21924 5.16119 5.88442 
286 1 -1.50433 9.00446 4.02044 
287 1 -1.24719 7.56632 6.08204 
288 10 20.5 -0.0119484 6.9205 
289 4 -1.29545 0.353989 6.91895 
290 4 20.5518 -2.92826 6.41171 
291 4 20.4958 0.261643 9.78715 
292 4 20.3101 3.51598 7.01165 
293 9 -0.971669 -2.01985 10.178 
294 5 -1.3074 -6.80114 11.6095 
295 3 -0.745317 -1.15623 9.62274 
296 3 -0.0463076 -2.40501 10.5327 
297 3 -1.58519 -1.65324 10.9865 
298 8 -1.69314 -3.10723 9.45564 
299 2 -2.74062 -2.87964 9.51222 
300 2 -1.39859 -3.08593 8.43171 
301 6 -2.58845 -5.14152 10.479 
302 5 -2.58604 -6.32616 11.1652 
303 7 -1.45393 -4.39857 10.1928 
304 6 -0.160114 -4.81967 10.651 
305 5 -0.138265 -6.02728 11.4215 
306 1 21.3264 -4.66618 10.2151 
307 1 21.3744 -6.71135 11.5451 
308 1 0.766493 -4.15654 10.5718 
309 1 -1.2938 -7.70193 12.1977 
310 1 0.744734 -6.37183 11.8166 
311 9 -1.94377 3.08687 9.60598 
312 5 -0.906947 8.16118 10.0322 
313 3 -1.72592 3.08938 8.59715 
314 3 -2.81735 3.59141 9.71731 
315 3 -2.05223 2.11357 9.89432 
316 8 -0.860511 3.79737 10.4012 
317 2 -0.957837 3.55517 11.4448 
318 2 0.132075 3.39204 10.1024 
319 6 0.269956 6.07528 10.5068 
320 5 0.288701 7.51311 10.3839 
321 7 -0.876415 5.30035 10.2441 
322 6 -2.07591 5.97948 9.82925 
323 5 -2.09682 7.384 9.81129 
324 1 1.19049 5.5971 10.7592 
325 1 1.15311 8.0781 10.6706 
326 1 21.9237 5.42642 9.52159 
327 1 -0.939419 9.29125 9.98324 
328 1 21.8843 7.92678 9.46397 
329 10 1.92844 0.381188 13.0435 
330 4 4.9582 0.119763 12.9198 
331 4 1.75545 -2.68621 13.3419 
332 4 1.97614 0.384279 16.0455 
333 4 2.03993 3.5256 13.2867 
334 9 4.8651 -1.92061 16.6601 
335 5 5.15716 -6.9213 17.4451 
336 3 5.02666 -0.969867 16.2817 
337 3 5.27763 -2.03384 17.6321 
338 3 3.83865 -1.93564 16.8347 
339 8 5.39352 -2.97735 15.7496 
340 2 4.87241 -2.81187 14.774 
341 2 6.53511 -2.76991 15.638 
342 6 4.06836 -5.00919 16.4556 
343 5 3.98133 -6.2933 17.0122 
344 7 5.30029 -4.4151 16.2452 
345 6 6.49759 -5.18831 16.5287 
346 5 6.42228 -6.41008 17.1708 
347 1 3.11396 -4.49515 16.2742 
348 1 3.00086 -6.69721 17.4128 
349 1 7.48309 -4.72334 16.3823 
350 1 5.08855 -7.91376 17.8135 
351 1 7.34226 -6.91748 17.4806 
352 9 4.47254 2.97555 16.4148 
353 5 4.8811 8.34745 16.1761 
354 3 4.96444 2.10967 16.5323 
355 3 3.51666 2.89961 16.0752 
356 3 4.36562 3.29267 17.4253 
357 8 5.37613 3.95323 15.6957 
358 2 6.4074 3.71447 15.7866 
359 2 5.19122 3.82635 14.7301 
360 6 6.31514 6.38103 16.1105 
361 5 6.13724 7.74557 16.1767 
362 7 5.2054 5.44679 15.9889 
363 6 3.91745 6.08528 16.1449 
364 5 3.78363 7.50566 16.269 
365 1 7.36381 6.09575 15.9629 
366 1 7.05284 8.28344 16.341 
367 1 3.043 5.42023 15.9911 
368 1 4.83336 9.38573 16.3932 
369 1 2.79103 7.9598 16.2111 
370 10 1.57566 0.170091 19.227 
371 4 4.67109 0.26255 19.415 
372 4 1.49018 -2.80649 19.0886 
373 4 1.50091 0.323942 -2.4352 
374 4 1.93387 3.62671 19.2265 
375 9 5.2599 -2.03889 -2.1076 
376 5 4.70236 -7.18031 -1.72052 
377 3 5.32942 -2.28664 -1.13004 
378 3 4.9729 -1.09069 -2.30828 
379 3 6.1883 -2.16664 -2.52864 
380 8 4.30368 -3.05482 -2.74866 
381 2 3.23137 -2.87515 -2.48314 
382 2 4.36022 -2.85079 20.9786 
383 6 4.22403 -5.37925 21.5592 
384 5 4.29672 -6.70142 21.8439 
385 7 4.67392 -4.4492 -2.33592 
386 6 4.9328 -4.84508 -0.997689 
387 5 5.00671 -6.25589 -0.705039 
388 1 3.76426 -5.02445 20.6271 
389 1 4.14557 -7.43739 21.01 
390 1 5.04245 -4.15548 -0.247243 
391 1 4.79764 -8.20333 -1.56117 
392 1 5.33127 -6.59931 0.264099 
393 9 4.14662 2.84063 -2.62691 
394 5 4.82673 7.9251 -2.11771 
395 3 4.33266 1.8581 -2.35435 
396 3 3.96834 2.74893 21.1972 
397 3 3.35857 3.08333 -2.1203 
398 8 5.38618 3.58901 -2.26914 
399 2 5.77343 3.22275 -1.34773 
400 2 6.13075 3.34998 21.8854 
401 6 5.08069 5.75818 -0.957301 
402 5 4.9698 7.15937 -0.924666 
403 7 5.14137 5.08422 -2.21163 
404 6 5.18969 5.83548 21.4325 
405 5 4.95085 7.28943 21.451 
406 1 5.09835 5.13994 -0.0158272 
407 1 5.08337 7.72029 -0.0445129 
408 1 5.33906 5.29761 20.5067 
409 1 4.70469 9.02929 -2.05659 
410 1 5.0066 7.92173 20.56 
411 10 1.84004 0.720335 0.64734 
412 4 4.88814 0.554226 0.276052 
413 4 1.98674 -2.68479 0.680562 
414 4 2.07897 0.457707 3.78242 
415 4 1.66248 3.75084 0.324019 
416 9 5.01535 -2.20689 3.15662 
417 5 5.66516 -7.09489 4.37499 
418 3 4.78021 -2.41136 2.15208 
419 3 6.02046 -2.18165 3.31524 
420 3 4.69184 -1.25206 3.23316 
421 8 4.31521 -3.0477 4.19203 
422 2 4.64825 -2.65839 5.20672 
423 2 3.24168 -2.91729 4.17168 
424 6 6.11702 -4.74905 4.1531 
425 5 6.57221 -6.11426 4.19745 
426 7 4.77226 -4.48271 4.13247 
427 6 3.86087 -5.50672 4.1351 
428 5 4.29315 -6.85559 4.31247 
429 1 6.92392 -4.02181 4.1955 
430 1 7.61981 -6.4442 4.21797 
431 1 2.77306 -5.28671 4.14275 
432 1 5.98039 -8.09536 4.65996 
433 1 3.57681 -7.59842 4.18742 
434 9 4.77486 2.67559 4.46793 
435 5 4.87473 7.67883 4.66654 
436 3 5.45108 2.69277 5.21652 
437 3 4.85181 1.71468 4.18398 
438 3 3.83439 2.81826 4.84742 
439 8 5.12633 3.60505 3.25905 
440 2 6.13734 3.49253 2.84555 
441 2 4.41354 3.4321 2.45843 
442 6 6.1533 5.7617 3.85974 
443 5 6.14912 7.1045 4.33818 
444 7 5.00073 5.03712 3.60174 
445 6 3.76998 5.54677 3.94428 
446 5 3.68511 6.88852 4.35491 
447 1 7.14091 5.35904 3.59998 
448 1 7.04233 7.7083 4.48766 
449 1 2.92692 4.90873 3.94467 
450 1 4.68225 8.70851 5.03069 
451 1 2.70376 7.24296 4.54814 
452 10 1.79628 0.209105 7.04581 
453 4 4.87206 0.457515 7.13395 
454 4 1.72131 -2.72642 7.32269 
455 4 1.89675 0.539554 10.0943 
456 4 1.65138 3.34541 6.83542 
457 9 5.34679 -2.2719 9.56584 
458 5 5.21937 -7.22708 10.0416 
459 3 5.33764 -1.27347 9.80158 
460 3 5.14558 -2.28993 8.48001 
461 3 6.37069 -2.46881 9.672 
462 8 4.42253 -3.0379 10.3733 
463 2 4.49939 -2.79763 11.4724 
464 2 3.4068 -2.7978 10.1332 
465 6 4.83417 -5.11906 8.93494 
466 5 5.11956 -6.46663 8.85113 
467 7 4.66291 -4.50033 10.1958 
468 6 4.86583 -5.22121 11.3891 
469 5 5.07651 -6.5571 11.301 
470 1 4.78293 -4.50162 7.99691 
471 1 5.23463 -6.92413 7.89326 
472 1 4.74167 -4.73944 12.4081 
473 1 5.46208 -8.2753 9.92545 
474 1 5.29694 -7.11465 12.1883 
475 9 5.16669 2.71848 10.2607 
476 5 5.28349 7.84847 10.5774 
477 3 5.20354 1.84837 9.78296 
478 3 4.79582 2.43074 11.188 
479 3 6.08577 3.08172 10.4218 
480 8 4.40185 3.75313 9.49034 
481 2 4.7098 3.59833 8.42678 
482 2 3.32707 3.54677 9.56979 
483 6 4.92654 6.15092 8.95208 
484 5 5.16262 7.47047 9.23592 
485 7 4.72026 5.20039 9.9668 
486 6 4.97645 5.56894 11.2881 
487 5 5.23311 6.91211 11.6528 
488 1 4.8078 5.89882 7.92164 
489 1 5.15079 8.17059 8.42832 
490 1 4.91948 4.8477 12.0718 
491 1 5.51838 8.87667 10.7338 
492 1 5.39354 7.17481 12.7054 
493 10 8.05215 0.268947 13.064 
494 4 11.0001 0.351155 13.3246 
495 4 8.05009 -2.66236 12.5804 
496 4 7.78348 0.169179 16.3656 
497 4 8.17635 3.2825 13.0705 
498 9 11.5197 -2.11339 16.4633 
499 5 11.0037 -7.21651 16.2856 
500 3 11.6931 -2.21474 17.48 
501 3 11.2645 -1.14781 16.3685 
502 3 12.4017 -2.14339 15.9323 
503 8 10.5267 -3.01577 15.7093 
504 2 9.59351 -2.64135 16.0811 
505 2 10.5417 -2.68941 14.6664 
506 6 10.3799 -5.34847 14.8751 
507 5 10.4614 -6.72405 15.0964 
508 7 10.6993 -4.49769 15.8993 
509 6 11.2219 -4.9145 17.1449 
510 5 11.4796 -6.32859 17.2952 
511 1 9.96538 -4.94258 13.9823 
512 1 10.0786 -7.4321 14.4003 
513 1 11.5418 -4.20125 17.976 
514 1 11.0085 -8.26185 16.3564 
515 1 11.9602 -6.7046 18.2508 
516 9 10.3129 2.83864 16.1334 
517 5 11.0436 7.91429 17.245 
518 3 10.5414 1.83851 16.1614 
519 3 10.2666 3.08331 15.1353 
520 3 9.31089 3.01432 16.4733 
521 8 11.3762 3.63771 16.8677 
522 2 11.4667 3.3964 17.908 
523 2 12.3598 3.3965 16.4562 
524 6 11.2338 5.92376 15.7959 
525 5 11.2637 7.34031 15.9554 
526 7 11.0772 5.10852 16.9557 
527 6 11.0672 5.68381 18.2024 
528 5 10.8845 7.07897 18.4423 
529 1 11.4647 5.45373 14.8371 
530 1 11.387 7.98178 15.0682 
531 1 11.0324 5.00328 19.0497 
532 1 11.0895 8.97407 17.337 
533 1 10.8615 7.57909 19.3722 
534 10 7.89098 0.374489 19.4114 
535 4 11.0109 0.361033 19.3969 
536 4 7.84682 -2.84106 19.5945 
537 4 7.97934 0.39606 -2.4447 
538 4 7.86648 3.43023 19.1175 
539 9 10.6758 -1.94572 -2.58772 
540 5 10.8413 -6.97549 21.5062 
541 3 10.5684 -2.11566 21.2055 
542 3 10.9489 -0.974445 -2.44816 
543 3 9.7673 -2.01458 -2.14574 
544 8 11.6922 -2.98573 -1.94996 
545 2 12.7367 -2.77808 -2.23251 
546 2 11.4924 -2.87903 -0.909597 
547 6 10.1228 -4.82541 -2.5617 
548 5 9.82916 -6.09332 21.7085 
549 7 11.4222 -4.34763 -2.46469 
550 6 12.4831 -5.20548 -2.75321 
551 5 12.1423 -6.55855 21.7124 
552 1 9.28241 -4.22237 -2.32808 
553 1 8.79124 -6.21303 21.5138 
554 1 13.5038 -4.9036 -2.74723 
555 1 10.66 -7.97908 21.0958 
556 1 12.897 -7.15612 21.3028 
557 9 10.8244 2.57572 -1.82864 
558 5 10.3515 7.69176 -2.0632 
559 3 11.1408 1.56959 -1.99519 
560 3 9.85202 2.66412 -2.07431 
561 3 10.95 2.78439 -0.832877 
562 8 11.5269 3.61521 -2.66617 
563 2 12.5818 3.44035 -2.5649 
564 2 11.4383 3.30932 21.1387 
565 6 12.1396 5.9563 -2.23008 
566 5 11.7384 7.33055 -2.0302 
567 7 11.1041 5.00519 -2.50101 
568 6 9.75578 5.4197 -2.58395 
569 5 9.35343 6.76885 -2.4312 
570 1 13.207 5.79682 -2.21701 
571 1 12.5428 8.06559 -1.86628 
572 1 8.91865 4.72378 -2.80145 
573 1 10.0521 8.72875 -1.82921 
574 1 8.35058 7.10551 -2.50638 
575 10 7.98956 0.419618 0.691936 
576 4 11.1486 0.196477 0.863125 
577 4 7.91028 -2.65093 0.758271 
578 4 7.56718 0.420461 3.70741 
579 4 8.40185 3.43562 0.640037 
580 9 11.7246 -2.04823 3.47625 
581 5 10.9529 -7.04947 3.87607 
582 3 11.7779 -2.36119 2.4659 
583 3 12.6381 -2.27126 3.95292 
584 3 11.6516 -1.04024 3.49733 
585 8 10.5367 -2.76581 4.07588 
586 2 10.7285 -2.63135 5.16121 
587 2 9.65577 -2.18364 3.87924 
588 6 10.8583 -4.85927 2.695 
589 5 11.0192 -6.28107 2.70192 
590 7 10.6108 -4.25084 3.96359 
591 6 10.5346 -5.01191 5.10535 
592 5 10.6142 -6.41327 5.06078 
593 1 10.9806 -4.33391 1.75194 
594 1 11.2924 -6.73306 1.71791 
595 1 10.2581 -4.58071 6.02601 
596 1 11.1777 -8.08623 3.84072 
597 1 10.3745 -7.00312 5.94974 
598 9 10.3575 2.88454 3.93083 
599 5 10.6172 7.84498 4.09358 
600 3 10.5111 1.86038 3.96756 
601 3 9.69353 3.18377 3.25383 
602 3 9.93021 3.1128 4.83936 
603 8 11.6303 3.69012 3.85177 
604 2 12.2986 3.34298 4.62745 
605 2 12.0674 3.48664 2.9168 
606 6 11.2578 5.72951 5.19464 
607 5 10.7799 7.01999 5.19396 
608 7 11.3229 5.1436 3.93238 
609 6 11.0939 5.86031 2.7489 
610 5 10.8897 7.24403 2.83647 
611 1 11.4958 5.20364 6.09452 
612 1 10.7555 7.51436 6.15609 
613 1 11.0143 5.33448 1.75353 
614 1 10.3199 8.82763 4.16675 
615 1 10.8834 7.81468 1.82499 
616 10 7.898 0.483044 6.97176 
617 4 11.033 0.364803 6.55916 
618 4 7.84732 -2.49606 6.98515 
619 4 8.09401 0.541968 9.90773 
620 4 7.9452 3.50735 6.89403 
621 9 10.9775 -1.93261 10.7392 
622 5 10.8222 -6.91265 10.3353 
623 3 11.0844 -2.32328 11.6244 
624 3 9.98179 -1.7011 10.7158 
625 3 11.4168 -0.973944 10.7939 
626 8 11.4418 -2.72713 9.53984 
627 2 10.9955 -2.33133 8.64521 
628 2 12.4601 -2.60953 9.46292 
629 6 12.331 -5.0781 9.94194 
630 5 12.1556 -6.3888 10.2478 
631 7 11.2558 -4.2538 9.6292 
632 6 9.94405 -4.7887 9.6961 
633 5 9.72451 -6.11133 9.99057 
634 1 13.2844 -4.59634 10.0189 
635 1 12.9261 -7.1101 10.3554 
636 1 9.0932 -4.09354 9.53716 
637 1 10.7548 -7.94517 10.5792 
638 1 8.7198 -6.44332 10.0649 
639 9 11.388 2.89795 10.663 
640 5 11.3599 8.09334 10.1351 
641 3 12.3871 2.89891 10.4375 
642 3 11.0681 1.87549 10.6717 
643 3 11.2003 3.14348 11.7087 
644 8 10.7113 3.78554 9.59476 
645 2 11.0894 3.4385 8.57409 
646 2 9.66872 3.46045 9.75348 
647 6 9.7975 6.19755 9.91475 
648 5 10.028 7.54868 10.0359 
649 7 10.8832 5.31417 9.74204 
650 6 12.2002 5.81722 9.91453 
651 5 12.4442 7.20499 10.0399 
652 1 8.76863 5.77539 9.97721 
653 1 9.19695 8.18062 10.2122 
654 1 13.0761 5.15059 9.89077 
655 1 11.6078 9.15687 10.292 
656 1 13.4641 7.49472 9.94005 
ITEM: TIMESTEP
111000
ITEM: NUMBER OF ATOMS
656
ITEM: BOX BOUNDS pp pp pp
-2.8454262767626695e+00 2.2045426276762893e+01
-4.3779677730546460e+01 4.3779677730546460e+01
-2.8097268584203157e+00 2.2009726858420642e+01
ITEM: ATOMS id type x y z 
1 10 14.2778 0.260507 13.31 
2 4 17.3356 0.0251767 13.0861 
3 4 13.9462 -2.67793 13.1665 
4 4 14.3652 0.422347 16.5461 
5 4 13.9756 3.19734 13.4482 
6 9 17.4901 -1.96392 16.7169 
7 5 18.7797 -6.83884 17.5313 
8 3 17.43 -1.01781 16.2834 
9 3 18.4825 -1.93758 17.0349 
10 3 16.9099 -1.89747 17.5546 
11 8 17.1443 -3.17655 15.936 
12 2 16.0583 -3.10245 15.9749 
13 2 17.3307 -2.94402 14.8938 
14 6 16.8989 -5.37496 17.1634 
15 5 17.4459 -6.56669 17.6455 
16 7 17.7065 -4.51552 16.3623 
17 6 19.0982 -4.83524 16.3611 
18 5 19.6845 -5.96956 16.9603 
19 1 15.8499 -5.10744 17.4235 
20 1 16.909 -7.11481 18.3802 
21 1 19.7814 -4.03712 15.962 
22 1 19.1526 -7.61714 18.1773 
23 1 20.7502 -6.02756 17.0405 
24 9 17.346 2.94975 16.8265 
25 5 17.4845 8.07292 15.6319 
26 3 17.4202 1.85531 16.7957 
27 3 16.3124 3.16233 16.8342 
28 3 17.6929 3.11112 17.8412 
29 8 18.06 3.66563 15.6306 
30 2 19.1275 3.36203 15.6933 
31 2 17.6631 3.33866 14.6244 
32 6 16.5762 5.75816 15.6773 
33 5 16.363 7.20542 15.6695 
34 7 17.8558 5.18975 15.6363 
35 6 18.9269 6.06674 15.6266 
36 5 18.7535 7.48154 15.6599 
37 1 15.6887 5.10272 15.8384 
38 1 15.3174 7.60815 15.6482 
39 1 19.9388 5.74265 15.4868 
40 1 17.4747 9.14805 15.6424 
41 1 19.5902 8.09428 15.7615 
42 10 14.1284 0.40849 19.3635 
43 4 17.3882 0.513641 19.4071 
44 4 13.8775 -2.58474 19.2607 
45 4 14.1128 0.618955 -2.32339 
46 4 14.7668 3.71516 19.2021 
47 9 17.8392 -1.71291 -2.24366 
48 5 17.6845 -6.67298 -1.74654 
49 3 18.7028 -1.7044 -2.82522 
50 3 18.1798 -2.01818 -1.31427 
51 3 17.5642 -0.738849 -2.07636 
52 8 16.6817 -2.6093 -2.5976 
53 2 15.79 -2.22066 -2.10363 
54 2 16.4907 -2.44555 21.1971 
55 6 17.2323 -4.98205 21.467 
56 5 17.6067 -6.27367 21.7627 
57 7 17.0004 -4.01767 -2.33935 
58 6 17.1536 -4.417 -1.01924 
59 5 17.5175 -5.75383 -0.665692 
60 1 17.0627 -4.71425 20.4469 
61 1 17.6617 -6.98096 20.9112 
62 1 17.0336 -3.69184 -0.243649 
63 1 17.9875 -7.69928 -1.46451 
64 1 17.5711 -6.04831 0.359599 
65 9 16.4654 3.11148 -2.51906 
66 5 18.0634 7.85481 -1.82665 
67 3 16.1415 2.48909 -1.80139 
68 3 16.3586 2.60395 21.3989 
69 3 15.7037 3.83964 22.2493 
70 8 17.9549 3.55608 -2.36398 
71 2 18.4071 2.84265 -1.65896 
72 2 18.4467 3.32045 21.53 
73 6 17.8499 5.6259 -0.791497 
74 5 17.8666 7.02145 -0.702475 
75 7 18.0665 5.0878 -2.10541 
76 6 18.2056 5.94549 21.5834 
77 5 18.2101 7.31448 21.749 
78 1 17.7122 5.00513 0.0523571 
79 1 17.7102 7.44298 0.299594 
80 1 18.4113 5.46636 20.6121 
81 1 18.0479 8.96276 -1.74939 
82 1 18.1891 7.85632 20.8088 
83 10 14.3148 0.627316 0.738764 
84 4 17.3935 0.571865 0.57385 
85 4 14.3056 -2.3736 1.11863 
86 4 14.3666 0.736998 3.79228 
87 4 14.2026 3.94824 0.127905 
88 9 16.9986 -1.9034 4.46709 
89 5 17.3956 -7.0897 3.65207 
90 3 15.9404 -1.98228 4.34749 
91 3 17.1608 -0.90158 4.40366 
92 3 17.1164 -2.37753 5.45001 
93 8 17.6633 -2.73396 3.39275 
94 2 17.3811 -2.40886 2.39339 
95 2 18.7353 -2.42227 3.5017 
96 6 18.7306 -4.94195 3.58412 
97 5 18.6251 -6.39115 3.62454 
98 7 17.5482 -4.20926 3.6742 
99 6 16.304 -4.87453 3.70439 
100 5 16.2393 -6.31111 3.70993 
101 1 19.6418 -4.3811 3.33341 
102 1 19.4853 -6.94274 3.39674 
103 1 15.3918 -4.2472 3.66575 
104 1 17.3747 -8.17437 3.66016 
105 1 15.2382 -6.72634 3.7517 
106 9 17.3679 2.64501 4.50401 
107 5 18.4977 7.71791 3.78757 
108 3 18.1227 2.79743 5.2118 
109 3 17.5304 1.64942 4.22785 
110 3 16.4425 2.70281 4.95968 
111 8 17.4125 3.50052 3.30397 
112 2 18.2078 3.11087 2.68345 
113 2 16.4743 3.225 2.71223 
114 6 19.0484 5.3425 3.70646 
115 5 19.4809 6.69917 3.98299 
116 7 17.6876 5.04651 3.5233 
117 6 16.7235 6.06969 3.48013 
118 5 17.1364 7.39145 3.54919 
119 1 19.8229 4.5479 3.71927 
120 1 20.4824 6.9288 4.18616 
121 1 15.6508 5.8523 3.33321 
122 1 18.7989 8.76062 3.89866 
123 1 16.3907 8.23486 3.49842 
124 10 13.9679 0.550033 6.97446 
125 4 17.37 0.203116 7.28907 
126 4 14.1577 -2.40974 6.80613 
127 4 13.8608 0.484229 9.91686 
128 4 14.3316 3.47037 7.03117 
129 9 16.6669 -2.15496 10.0751 
130 5 17.4647 -7.14919 9.4742 
131 3 16.0529 -2.29017 9.25097 
132 3 16.8198 -1.12715 10.0733 
133 3 16.0435 -2.37366 10.8271 
134 8 17.9167 -2.91467 10.1261 
135 2 18.6965 -2.48697 9.50861 
136 2 18.3743 -2.84618 11.0987 
137 6 17.5632 -5.22688 10.967 
138 5 17.3214 -6.57893 10.7599 
139 7 17.7109 -4.38026 9.84567 
140 6 17.7532 -4.96563 8.52818 
141 5 17.694 -6.35519 8.40368 
142 1 17.5067 -4.77049 11.9782 
143 1 16.8098 -7.09345 11.5783 
144 1 17.763 -4.35781 7.65783 
145 1 17.215 -8.22615 9.29156 
146 1 17.7699 -6.66793 7.38938 
147 9 18.087 2.75668 9.77589 
148 5 17.3325 7.90032 9.63842 
149 3 17.9768 1.7693 9.99587 
150 3 18.9844 3.12567 10.1848 
151 3 18.1068 2.85013 8.75471 
152 8 16.9314 3.66076 10.4215 
153 2 15.9581 3.34631 10.0899 
154 2 16.8838 3.37833 11.4214 
155 6 17.3573 5.58438 8.9166 
156 5 17.5166 6.97003 8.61909 
157 7 17.0196 5.14281 10.1902 
158 6 16.7176 6.06976 11.2013 
159 5 16.7758 7.47371 10.9005 
160 1 17.2824 4.78029 8.1711 
161 1 17.747 7.35388 7.6622 
162 1 16.4998 5.71749 12.2126 
163 1 17.4644 8.97174 9.40008 
164 1 16.612 8.16945 11.6975 
165 10 20.592 0.288979 12.9799 
166 4 -1.13003 0.532148 13.3914 
167 4 21.0151 -2.75514 13.029 
168 4 20.3099 0.127934 16.0908 
169 4 20.3561 3.26487 12.6618 
170 9 -1.04076 -2.02099 16.1949 
171 5 -0.649009 -7.13809 16.4154 
172 3 0.0203906 -2.07572 16.4457 
173 3 -1.39879 -1.07847 16.2941 
174 3 -1.06545 -2.14851 15.1563 
175 8 -1.91282 -3.02502 16.8068 
176 2 -1.85301 -2.85305 17.9111 
177 2 21.9587 -2.82952 16.584 
178 6 -1.34512 -5.25577 17.8203 
179 5 -0.924486 -6.6563 17.737 
180 7 -1.4785 -4.49468 16.6396 
181 6 -1.13739 -4.99521 15.4093 
182 5 -0.746833 -6.32303 15.2717 
183 1 -1.70593 -4.76556 18.7402 
184 1 -0.758819 -7.28375 18.6164 
185 1 -1.24398 -4.28682 14.5856 
186 1 -0.319288 -8.16422 16.3224 
187 1 -0.487811 -6.64218 14.2987 
188 9 -1.94294 2.6005 16.3548 
189 5 -2.64626 7.33643 15.2083 
190 3 -2.69789 2.72834 15.6438 
191 3 -2.38681 2.45439 17.1987 
192 3 -1.55763 1.744 15.9916 
193 8 -0.862607 3.67591 16.5316 
194 2 -0.774222 3.69135 17.6073 
195 2 0.0615964 3.27885 16.0553 
196 6 -1.76547 5.97762 17.003 
197 5 -2.49885 7.061 16.6046 
198 7 -1.28571 5.01029 16.1082 
199 6 -1.40166 5.23121 14.6826 
200 5 -2.07125 6.3706 14.3234 
201 1 -1.74598 5.75411 18.0347 
202 1 -2.92831 7.64736 17.3503 
203 1 -0.932432 4.51322 13.9475 
204 1 21.7906 8.26419 14.8244 
205 1 -2.08583 6.5625 13.2538 
206 10 20.4912 0.355327 19.3852 
207 4 -1.38973 0.342271 19.3308 
208 4 20.0515 -2.76102 19.5964 
209 4 20.5989 0.506605 -2.55131 
210 4 20.5444 3.37125 19.0392 
211 9 -1.23834 -2.25601 -1.80296 
212 5 -2.53805 -7.05878 -2.20654 
213 3 -0.858615 -2.5511 -0.967778 
214 3 -2.29386 -2.19133 -1.66835 
215 3 -0.975331 -1.26552 -2.01959 
216 8 -0.877256 -3.21872 21.8705 
217 2 -1.29081 -2.8148 20.9286 
218 2 0.252604 -3.27771 21.8427 
219 6 -2.7987 -4.66931 -2.39744 
220 5 21.575 -5.8817 -2.07817 
221 7 -1.47168 -4.57134 -2.78018 
222 6 -0.673611 -5.69693 21.8388 
223 5 -1.24522 -6.96824 -2.6742 
224 1 21.3655 -3.77188 -2.28636 
225 1 20.5376 -5.90551 -1.65572 
226 1 0.37079 -5.58209 21.6626 
227 1 21.9033 -8.08218 -1.92971 
228 1 -0.666561 -7.82074 -2.89867 
229 9 -1.46316 2.62187 -1.96907 
230 5 -1.80893 7.55252 -1.67356 
231 3 -0.904975 2.79655 -1.15477 
232 3 -1.31956 1.69032 -2.28555 
233 3 -2.42246 2.70105 -1.68464 
234 8 -1.01609 3.58419 21.8062 
235 2 0.0181251 3.51531 21.8396 
236 2 -1.3908 3.38669 20.8462 
237 6 -0.171569 5.8231 -2.30936 
238 5 -0.489105 7.09734 -1.83798 
239 7 -1.25704 4.98086 -2.58303 
240 6 -2.62411 5.39636 -2.53776 
241 5 -2.89105 6.69051 -2.03148 
242 1 0.894361 5.45254 -2.24335 
243 1 0.347587 7.78618 -1.61361 
244 1 21.4365 4.6965 -2.77825 
245 1 -2.07337 8.54414 -1.32925 
246 1 20.9562 7.02941 -1.88876 
247 10 20.4686 0.658274 0.781376 
248 4 -1.25152 0.256019 0.831043 
249 4 20.5683 -2.43649 0.720218 
250 4 20.3999 0.428819 3.85506 
251 4 20.8761 3.49745 0.63883 
252 9 -1.82879 -2.16167 3.71615 
253 5 -1.66156 -7.24513 2.72055 
254 3 -2.69876 -2.22242 4.16879 
255 3 -1.96166 -2.15828 2.69024 
256 3 -1.57315 -1.20776 3.95251 
257 8 -0.886829 -3.27313 4.18206 
258 2 0.0644485 -2.96703 3.73538 
259 2 -1.02017 -3.13424 5.21933 
260 6 -1.16188 -4.90126 2.28835 
261 5 -1.36624 -6.20441 1.78548 
262 7 -1.08712 -4.63746 3.65821 
263 6 -1.30298 -5.69426 4.52896 
264 5 -1.55633 -7.02721 4.05215 
265 1 -1.11989 -4.10561 1.54975 
266 1 -1.42092 -6.42129 0.716882 
267 1 -1.18417 -5.55246 5.64034 
268 1 -1.84226 -8.32354 2.36677 
269 1 -1.74576 -7.85963 4.76966 
270 9 -1.38197 2.85168 4.39122 
271 5 -1.36831 8.05651 4.09149 
272 3 -1.85768 2.10195 3.90892 
273 3 -2.04946 3.3297 5.03719 
274 3 -0.606603 2.40504 4.96955 
275 8 -0.784488 3.83084 3.40116 
276 2 0.315919 3.66682 3.49753 
277 2 -1.21453 3.53877 2.41966 
278 6 -1.12056 6.18916 2.57177 
279 5 -1.36563 7.56522 2.73459 