ITEM: TIMESTEP
0
ITEM: NUMBER OF ATOMS
656
ITEM: BOX BOUNDS pp pp pp
-3.2000000000000002e+00 2.2400000000000002e+01
-4.3779677730546460e+01 4.3779677730546460e+01
-3.2000000000000002e+00 2.2400000000000002e+01
ITEM: ATOMS id type x y z 
1 10 0 0 0 
2 4 3.2 0 0 
3 4 0 -3.2 0 
4 4 0 0 3.2 
5 4 0 3.2 0 
6 9 3.2 -3.2 3.2 
7 5 3.2 -8.15352 3.2 
8 3 4.16719 -3.41384 2.95133 
9 3 3.0963 -3.40171 4.19573 
10 3 3.03992 -2.20255 3.05241 
11 8 2.24938 -4.07172 2.38909 
12 2 1.24356 -3.78957 2.697 
13 2 2.39717 -3.79102 1.34721 
14 6 1.93048 -6.1788 3.70154 
15 5 2.25415 -7.49774 3.97496 
16 7 2.55597 -5.51228 2.6514 
17 6 3.49826 -6.17689 1.87116 
18 5 3.81983 -7.49573 2.14719 
19 1 1.17241 -5.67714 4.29544 
20 1 1.75963 -8.01788 4.78543 
21 1 3.96818 -5.67383 1.03141 
22 1 3.44715 -9.18645 3.41083 
23 1 4.5455 -8.01403 1.53342 
24 9 3.2 3.2 3.2 
25 5 3.2 8.15352 3.2 
26 3 2.85813 3.41384 4.13831 
27 3 4.2011 3.40171 3.19397 
28 3 3.06874 2.20255 3.02628 
29 8 2.48574 4.07172 2.17478 
30 2 2.89033 3.78957 1.20381 
31 2 1.4344 3.79102 2.22019 
32 6 3.82304 6.1788 1.98549 
33 5 4.06357 7.49774 2.3343 
34 7 2.71687 5.51228 2.50551 
35 6 1.8484 6.17689 3.36715 
36 5 2.09173 7.49573 3.71413 
37 1 4.48809 5.67714 1.28899 
38 1 4.91843 8.01788 1.92123 
39 1 0.966789 5.67383 3.75288 
40 1 3.3857 9.18645 3.46655 
41 1 1.41006 8.01403 4.37643 
42 10 0 0 6.4 
43 4 3.2 0 6.4 
44 4 0 -3.2 6.4 
45 4 0 0 9.6 
46 4 0 3.2 6.4 
47 9 3.2 -3.2 9.6 
48 5 3.2 -8.15352 9.6 
49 3 4.16719 -3.41384 9.35133 
50 3 3.0963 -3.40171 10.5957 
51 3 3.03992 -2.20255 9.45241 
52 8 2.24938 -4.07172 8.78909 
53 2 1.24356 -3.78957 9.097 
54 2 2.39717 -3.79102 7.74721 
55 6 1.93048 -6.1788 10.1015 
56 5 2.25415 -7.49774 10.375 
57 7 2.55597 -5.51228 9.0514 
58 6 3.49826 -6.17689 8.27116 
59 5 3.81983 -7.49573 8.54719 
60 1 1.17241 -5.67714 10.6954 
61 1 1.75963 -8.01788 11.1854 
62 1 3.96818 -5.67383 7.43141 
63 1 3.44715 -9.18645 9.81083 
64 1 4.5455 -8.01403 7.93342 
65 9 3.2 3.2 9.6 
66 5 3.2 8.15352 9.6 
67 3 2.85813 3.41384 10.5383 
68 3 4.2011 3.40171 9.59397 
69 3 3.06874 2.20255 9.42628 
70 8 2.48574 4.07172 8.57478 
71 2 2.89033 3.78957 7.60381 
72 2 1.4344 3.79102 8.62019 
73 6 3.82304 6.1788 8.38549 
74 5 4.06357 7.49774 8.7343 
75 7 2.71687 5.51228 8.90551 
76 6 1.8484 6.17689 9.76715 
77 5 2.09173 7.49573 10.1141 
78 1 4.48809 5.67714 7.68899 
79 1 4.91843 8.01788 8.32123 
80 1 0.966789 5.67383 10.1529 
81 1 3.3857 9.18645 9.86655 
82 1 1.41006 8.01403 10.7764 
83 10 0 0 12.8 
84 4 3.2 0 12.8 
85 4 0 -3.2 12.8 
86 4 0 0 16 
87 4 0 3.2 12.8 
88 9 3.2 -3.2 16 
89 5 3.2 -8.15352 16 
90 3 4.16719 -3.41384 15.7513 
91 3 3.0963 -3.40171 16.9957 
92 3 3.03992 -2.20255 15.8524 
93 8 2.24938 -4.07172 15.1891 
94 2 1.24356 -3.78957 15.497 
95 2 2.39717 -3.79102 14.1472 
96 6 1.93048 -6.1788 16.5015 
97 5 2.25415 -7.49774 16.775 
98 7 2.55597 -5.51228 15.4514 
99 6 3.49826 -6.17689 14.6712 
100 5 3.81983 -7.49573 14.9472 
101 1 1.17241 -5.67714 17.0954 
102 1 1.75963 -8.01788 17.5854 
103 1 3.96818 -5.67383 13.8314 
104 1 3.44715 -9.18645 16.2108 
105 1 4.5455 -8.01403 14.3334 
106 9 3.2 3.2 16 
107 5 3.2 8.15352 16 
108 3 2.85813 3.41384 16.9383 
109 3 4.2011 3.40171 15.994 
110 3 3.06874 2.20255 15.8263 
111 8 2.48574 4.07172 14.9748 
112 2 2.89033 3.78957 14.0038 
113 2 1.4344 3.79102 15.0202 
114 6 3.82304 6.1788 14.7855 
115 5 4.06357 7.49774 15.1343 
116 7 2.71687 5.51228 15.3055 
117 6 1.8484 6.17689 16.1672 
118 5 2.09173 7.49573 16.5141 
119 1 4.48809 5.67714 14.089 
120 1 4.91843 8.01788 14.7212 
121 1 0.966789 5.67383 16.5529 
122 1 3.3857 9.18645 16.2665 
123 1 1.41006 8.01403 17.1764 
124 10 0 0 19.2 
125 4 3.2 0 19.2 
126 4 0 -3.2 19.2 
127 4 0 0 -3.2 
128 4 0 3.2 19.2 
129 9 3.2 -3.2 22.4 
130 5 3.2 -8.15352 22.4 
131 3 4.16719 -3.41384 22.1513 
132 3 3.0963 -3.40171 -2.20427 
133 3 3.03992 -2.20255 22.2524 
134 8 2.24938 -4.07172 21.5891 
135 2 1.24356 -3.78957 21.897 
136 2 2.39717 -3.79102 20.5472 
137 6 1.93048 -6.1788 -2.69846 
138 5 2.25415 -7.49774 -2.42504 
139 7 2.55597 -5.51228 21.8514 
140 6 3.49826 -6.17689 21.0712 
141 5 3.81983 -7.49573 21.3472 
142 1 1.17241 -5.67714 -2.10456 
143 1 1.75963 -8.01788 -1.61457 
144 1 3.96818 -5.67383 20.2314 
145 1 3.44715 -9.18645 -2.98917 
146 1 4.5455 -8.01403 20.7334 
147 9 3.2 3.2 -3.2 
148 5 3.2 8.15352 -3.2 
149 3 2.85813 3.41384 -2.26169 
150 3 4.2011 3.40171 22.394 
151 3 3.06874 2.20255 22.2263 
152 8 2.48574 4.07172 21.3748 
153 2 2.89033 3.78957 20.4038 
154 2 1.4344 3.79102 21.4202 
155 6 3.82304 6.1788 21.1855 
156 5 4.06357 7.49774 21.5343 
157 7 2.71687 5.51228 21.7055 
158 6 1.8484 6.17689 -3.03285 
159 5 2.09173 7.49573 -2.68587 
160 1 4.48809 5.67714 20.489 
161 1 4.91843 8.01788 21.1212 
162 1 0.966789 5.67383 -2.64712 
163 1 3.3857 9.18645 -2.93345 
164 1 1.41006 8.01403 -2.02357 
165 10 6.4 0 0 
166 4 9.6 0 0 
167 4 6.4 -3.2 0 
168 4 6.4 0 3.2 
169 4 6.4 3.2 0 
170 9 9.6 -3.2 3.2 
171 5 9.6 -8.15352 3.2 
172 3 10.5672 -3.41384 2.95133 
173 3 9.4963 -3.40171 4.19573 
174 3 9.43992 -2.20255 3.05241 
175 8 8.64938 -4.07172 2.38909 
176 2 7.64356 -3.78957 2.697 
177 2 8.79717 -3.79102 1.34721 
178 6 8.33048 -6.1788 3.70154 
179 5 8.65415 -7.49774 3.97496 
180 7 8.95597 -5.51228 2.6514 
181 6 9.89826 -6.17689 1.87116 
182 5 10.2198 -7.49573 2.14719 
183 1 7.57241 -5.67714 4.29544 
184 1 8.15963 -8.01788 4.78543 
185 1 10.3682 -5.67383 1.03141 
186 1 9.84715 -9.18645 3.41083 
187 1 10.9455 -8.01403 1.53342 
188 9 9.6 3.2 3.2 
189 5 9.6 8.15352 3.2 
190 3 9.25813 3.41384 4.13831 
191 3 10.6011 3.40171 3.19397 
192 3 9.46874 2.20255 3.02628 
193 8 8.88574 4.07172 2.17478 
194 2 9.29033 3.78957 1.20381 
195 2 7.8344 3.79102 2.22019 
196 6 10.223 6.1788 1.98549 
197 5 10.4636 7.49774 2.3343 
198 7 9.11687 5.51228 2.50551 
199 6 8.2484 6.17689 3.36715 
200 5 8.49173 7.49573 3.71413 
201 1 10.8881 5.67714 1.28899 
202 1 11.3184 8.01788 1.92123 
203 1 7.36679 5.67383 3.75288 
204 1 9.7857 9.18645 3.46655 
205 1 7.81006 8.01403 4.37643 
206 10 6.4 0 6.4 
207 4 9.6 0 6.4 
208 4 6.4 -3.2 6.4 
209 4 6.4 0 9.6 
210 4 6.4 3.2 6.4 
211 9 9.6 -3.2 9.6 
212 5 9.6 -8.15352 9.6 
213 3 10.5672 -3.41384 9.35133 
214 3 9.4963 -3.40171 10.5957 
215 3 9.43992 -2.20255 9.45241 
216 8 8.64938 -4.07172 8.78909 
217 2 7.64356 -3.78957 9.097 
218 2 8.79717 -3.79102 7.74721 
219 6 8.33048 -6.1788 10.1015 
220 5 8.65415 -7.49774 10.375 
221 7 8.95597 -5.51228 9.0514 
222 6 9.89826 -6.17689 8.27116 
223 5 10.2198 -7.49573 8.54719 
224 1 7.57241 -5.67714 10.6954 
225 1 8.15963 -8.01788 11.1854 
226 1 10.3682 -5.67383 7.43141 
227 1 9.84715 -9.18645 9.81083 
228 1 10.9455 -8.01403 7.93342 
229 9 9.6 3.2 9.6 
230 5 9.6 8.15352 9.6 
231 3 9.25813 3.41384 10.5383 
232 3 10.6011 3.40171 9.59397 
233 3 9.46874 2.20255 9.42628 
234 8 8.88574 4.07172 8.57478 
235 2 9.29033 3.78957 7.60381 
236 2 7.8344 3.79102 8.62019 
237 6 10.223 6.1788 8.38549 
238 5 10.4636 7.49774 8.7343 
239 7 9.11687 5.51228 8.90551 
240 6 8.2484 6.17689 9.76715 
241 5 8.49173 7.49573 10.1141 
242 1 10.8881 5.67714 7.68899 
243 1 11.3184 8.01788 8.32123 
244 1 7.36679 5.67383 10.1529 
245 1 9.7857 9.18645 9.86655 
246 1 7.81006 8.01403 10.7764 
247 10 6.4 0 12.8 
248 4 9.6 0 12.8 
249 4 6.4 -3.2 12.8 
250 4 6.4 0 16 
251 4 6.4 3.2 12.8 
252 9 9.6 -3.2 16 
253 5 9.6 -8.15352 16 
254 3 10.5672 -3.41384 15.7513 
255 3 9.4963 -3.40171 16.9957 
256 3 9.43992 -2.20255 15.8524 
257 8 8.64938 -4.07172 15.1891 
258 2 7.64356 -3.78957 15.497 
259 2 8.79717 -3.79102 14.1472 
260 6 8.33048 -6.1788 16.5015 
261 5 8.65415 -7.49774 16.775 
262 7 8.95597 -5.51228 15.4514 
263 6 9.89826 -6.17689 14.6712 
264 5 10.2198 -7.49573 14.9472 
265 1 7.57241 -5.67714 17.0954 
266 1 8.15963 -8.01788 17.5854 
267 1 10.3682 -5.67383 13.8314 
268 1 9.84715 -9.18645 16.2108 
269 1 10.9455 -8.01403 14.3334 
270 9 9.6 3.2 16 
271 5 9.6 8.15352 16 
272 3 9.25813 3.41384 16.9383 
273 3 10.6011 3.40171 15.994 
274 3 9.46874 2.20255 15.8263 
275 8 8.88574 4.07172 14.9748 
276 2 9.29033 3.78957 14.0038 
277 2 7.8344 3.79102 15.0202 
278 6 10.223 6.1788 14.7855 
279 5 10.4636 7.49774 15.1343 
280 7 9.11687 5.51228 15.3055 
281 6 8.2484 6.17689 16.1672 
282 5 8.49173 7.49573 16.5141 
283 1 10.8881 5.67714 14.089 
284 1 11.3184 8.01788 14.7212 
285 1 7.36679 5.67383 16.5529 
286 1 9.7857 9.18645 16.2665 
287 1 7.81006 8.01403 17.1764 
288 10 6.4 0 19.2 
289 4 9.6 0 19.2 
290 4 6.4 -3.2 19.2 
291 4 6.4 0 -3.2 
292 4 6.4 3.2 19.2 
293 9 9.6 -3.2 22.4 
294 5 9.6 -8.15352 22.4 
295 3 10.5672 -3.41384 22.1513 
296 3 9.4963 -3.40171 -2.20427 
297 3 9.43992 -2.20255 22.2524 
298 8 8.64938 -4.07172 21.5891 
299 2 7.64356 -3.78957 21.897 
300 2 8.79717 -3.79102 20.5472 
301 6 8.33048 -6.1788 -2.69846 
302 5 8.65415 -7.49774 -2.42504 
303 7 8.95597 -5.51228 21.8514 
304 6 9.89826 -6.17689 21.0712 
305 5 10.2198 -7.49573 21.3472 
306 1 7.57241 -5.67714 -2.10456 
307 1 8.15963 -8.01788 -1.61457 
308 1 10.3682 -5.67383 20.2314 
309 1 9.84715 -9.18645 -2.98917 
310 1 10.9455 -8.01403 20.7334 
311 9 9.6 3.2 -3.2 
312 5 9.6 8.15352 -3.2 
313 3 9.25813 3.41384 -2.26169 
314 3 10.6011 3.40171 22.394 
315 3 9.46874 2.20255 22.2263 
316 8 8.88574 4.07172 21.3748 
317 2 9.29033 3.78957 20.4038 
318 2 7.8344 3.79102 21.4202 
319 6 10.223 6.1788 21.1855 
320 5 10.4636 7.49774 21.5343 
321 7 9.11687 5.51228 21.7055 
322 6 8.2484 6.17689 -3.03285 
323 5 8.49173 7.49573 -2.68587 
324 1 10.8881 5.67714 20.489 
325 1 11.3184 8.01788 21.1212 
326 1 7.36679 5.67383 -2.64712 
327 1 9.7857 9.18645 -2.93345 
328 1 7.81006 8.01403 -2.02357 
329 10 12.8 0 0 
330 4 16 0 0 
331 4 12.8 -3.2 0 
332 4 12.8 0 3.2 
333 4 12.8 3.2 0 
334 9 16 -3.2 3.2 
335 5 16 -8.15352 3.2 
336 3 16.9672 -3.41384 2.95133 
337 3 15.8963 -3.40171 4.19573 
338 3 15.8399 -2.20255 3.05241 
339 8 15.0494 -4.07172 2.38909 
340 2 14.0436 -3.78957 2.697 
341 2 15.1972 -3.79102 1.34721 
342 6 14.7305 -6.1788 3.70154 
343 5 15.0542 -7.49774 3.97496 
344 7 15.356 -5.51228 2.6514 
345 6 16.2983 -6.17689 1.87116 
346 5 16.6198 -7.49573 2.14719 
347 1 13.9724 -5.67714 4.29544 
348 1 14.5596 -8.01788 4.78543 
349 1 16.7682 -5.67383 1.03141 
350 1 16.2472 -9.18645 3.41083 
351 1 17.3455 -8.01403 1.53342 
352 9 16 3.2 3.2 
353 5 16 8.15352 3.2 
354 3 15.6581 3.41384 4.13831 
355 3 17.0011 3.40171 3.19397 
356 3 15.8687 2.20255 3.02628 
357 8 15.2857 4.07172 2.17478 
358 2 15.6903 3.78957 1.20381 
359 2 14.2344 3.79102 2.22019 
360 6 16.623 6.1788 1.98549 
361 5 16.8636 7.49774 2.3343 
362 7 15.5169 5.51228 2.50551 
363 6 14.6484 6.17689 3.36715 
364 5 14.8917 7.49573 3.71413 
365 1 17.2881 5.67714 1.28899 
366 1 17.7184 8.01788 1.92123 
367 1 13.7668 5.67383 3.75288 
368 1 16.1857 9.18645 3.46655 
369 1 14.2101 8.01403 4.37643 
370 10 12.8 0 6.4 
371 4 16 0 6.4 
372 4 12.8 -3.2 6.4 
373 4 12.8 0 9.6 
374 4 12.8 3.2 6.4 
375 9 16 -3.2 9.6 
376 5 16 -8.15352 9.6 
377 3 16.9672 -3.41384 9.35133 
378 3 15.8963 -3.40171 10.5957 
379 3 15.8399 -2.20255 9.45241 
380 8 15.0494 -4.07172 8.78909 
381 2 14.0436 -3.78957 9.097 
382 2 15.1972 -3.79102 7.74721 
383 6 14.7305 -6.1788 10.1015 
384 5 15.0542 -7.49774 10.375 
385 7 15.356 -5.51228 9.0514 
386 6 16.2983 -6.17689 8.27116 
387 5 16.6198 -7.49573 8.54719 
388 1 13.9724 -5.67714 10.6954 
389 1 14.5596 -8.01788 11.1854 
390 1 16.7682 -5.67383 7.43141 
391 1 16.2472 -9.18645 9.81083 
392 1 17.3455 -8.01403 7.93342 
393 9 16 3.2 9.6 
394 5 16 8.15352 9.6 
395 3 15.6581 3.41384 10.5383 
396 3 17.0011 3.40171 9.59397 
397 3 15.8687 2.20255 9.42628 
398 8 15.2857 4.07172 8.57478 
399 2 15.6903 3.78957 7.60381 
400 2 14.2344 3.79102 8.62019 
401 6 16.623 6.1788 8.38549 
402 5 16.8636 7.49774 8.7343 
403 7 15.5169 5.51228 8.90551 
404 6 14.6484 6.17689 9.76715 
405 5 14.8917 7.49573 10.1141 
406 1 17.2881 5.67714 7.68899 
407 1 17.7184 8.01788 8.32123 
408 1 13.7668 5.67383 10.1529 
409 1 16.1857 9.18645 9.86655 
410 1 14.2101 8.01403 10.7764 
411 10 12.8 0 12.8 
412 4 16 0 12.8 
413 4 12.8 -3.2 12.8 
414 4 12.8 0 16 
415 4 12.8 3.2 12.8 
416 9 16 -3.2 16 
417 5 16 -8.15352 16 
418 3 16.9672 -3.41384 15.7513 
419 3 15.8963 -3.40171 16.9957 
420 3 15.8399 -2.20255 15.8524 
421 8 15.0494 -4.07172 15.1891 
422 2 14.0436 -3.78957 15.497 
423 2 15.1972 -3.79102 14.1472 
424 6 14.7305 -6.1788 16.5015 
425 5 15.0542 -7.49774 16.775 
426 7 15.356 -5.51228 15.4514 
427 6 16.2983 -6.17689 14.6712 
428 5 16.6198 -7.49573 14.9472 
429 1 13.9724 -5.67714 17.0954 
430 1 14.5596 -8.01788 17.5854 
431 1 16.7682 -5.67383 13.8314 
432 1 16.2472 -9.18645 16.2108 
433 1 17.3455 -8.01403 14.3334 
434 9 16 3.2 16 
435 5 16 8.15352 16 
436 3 15.6581 3.41384 16.9383 
437 3 17.0011 3.40171 15.994 
438 3 15.8687 2.20255 15.8263 
439 8 15.2857 4.07172 14.9748 
440 2 15.6903 3.78957 14.0038 
441 2 14.2344 3.79102 15.0202 
442 6 16.623 6.1788 14.7855 
443 5 16.8636 7.49774 15.1343 
444 7 15.5169 5.51228 15.3055 
445 6 14.6484 6.17689 16.1672 
446 5 14.8917 7.49573 16.5141 
447 1 17.2881 5.67714 14.089 
448 1 17.7184 8.01788 14.7212 
449 1 13.7668 5.67383 16.5529 
450 1 16.1857 9.18645 16.2665 
451 1 14.2101 8.01403 17.1764 
452 10 12.8 0 19.2 
453 4 16 0 19.2 
454 4 12.8 -3.2 19.2 
455 4 12.8 0 -3.2 
456 4 12.8 3.2 19.2 
457 9 16 -3.2 22.4 
458 5 16 -8.15352 22.4 
459 3 16.9672 -3.41384 22.1513 
460 3 15.8963 -3.40171 -2.20427 
461 3 15.8399 -2.20255 22.2524 
462 8 15.0494 -4.07172 21.5891 
463 2 14.0436 -3.78957 21.897 
464 2 15.1972 -3.79102 20.5472 
465 6 14.7305 -6.1788 -2.69846 
466 5 15.0542 -7.49774 -2.42504 
467 7 15.356 -5.51228 21.8514 
468 6 16.2983 -6.17689 21.0712 
469 5 16.6198 -7.49573 21.3472 
470 1 13.9724 -5.67714 -2.10456 
471 1 14.5596 -8.01788 -1.61457 
472 1 16.7682 -5.67383 20.2314 
473 1 16.2472 -9.18645 -2.98917 
474 1 17.3455 -8.01403 20.7334 
475 9 16 3.2 -3.2 
476 5 16 8.15352 -3.2 
477 3 15.6581 3.41384 -2.26169 
478 3 17.0011 3.40171 22.394 
479 3 15.8687 2.20255 22.2263 
480 8 15.2857 4.07172 21.3748 
481 2 15.6903 3.78957 20.4038 
482 2 14.2344 3.79102 21.4202 
483 6 16.623 6.1788 21.1855 
484 5 16.8636 7.49774 21.5343 
485 7 15.5169 5.51228 21.7055 
486 6 14.6484 6.17689 -3.03285 
487 5 14.8917 7.49573 -2.68587 
488 1 17.2881 5.67714 20.489 
489 1 17.7184 8.01788 21.1212 
490 1 13.7668 5.67383 -2.64712 
491 1 16.1857 9.18645 -2.93345 
492 1 14.2101 8.01403 -2.02357 
493 10 19.2 0 0 
494 4 -3.2 0 0 
495 4 19.2 -3.2 0 
496 4 19.2 0 3.2 
497 4 19.2 3.2 0 
498 9 22.4 -3.2 3.2 
499 5 -3.2 -8.15352 3.2 
500 3 -2.23281 -3.41384 2.95133 
501 3 22.2963 -3.40171 4.19573 
502 3 22.2399 -2.20255 3.05241 
503 8 21.4494 -4.07172 2.38909 
504 2 20.4436 -3.78957 2.697 
505 2 21.5972 -3.79102 1.34721 
506 6 21.1305 -6.1788 3.70154 
507 5 21.4542 -7.49774 3.97496 
508 7 21.756 -5.51228 2.6514 
509 6 -2.90174 -6.17689 1.87116 
510 5 -2.58017 -7.49573 2.14719 
511 1 20.3724 -5.67714 4.29544 
512 1 20.9596 -8.01788 4.78543 
513 1 -2.43182 -5.67383 1.03141 
514 1 -2.95285 -9.18645 3.41083 
515 1 -1.8545 -8.01403 1.53342 
516 9 -3.2 3.2 3.2 
517 5 22.4 8.15352 3.2 
518 3 22.0581 3.41384 4.13831 
519 3 -2.1989 3.40171 3.19397 
520 3 22.2687 2.20255 3.02628 
521 8 21.6857 4.07172 2.17478 
522 2 22.0903 3.78957 1.20381 
523 2 20.6344 3.79102 2.22019 
524 6 -2.57696 6.1788 1.98549 
525 5 -2.33643 7.49774 2.3343 
526 7 21.9169 5.51228 2.50551 
527 6 21.0484 6.17689 3.36715 
528 5 21.2917 7.49573 3.71413 
529 1 -1.91191 5.67714 1.28899 
530 1 -1.48157 8.01788 1.92123 
531 1 20.1668 5.67383 3.75288 
532 1 -3.0143 9.18645 3.46655 
533 1 20.6101 8.01403 4.37643 
534 10 19.2 0 6.4 
535 4 -3.2 0 6.4 
536 4 19.2 -3.2 6.4 
537 4 19.2 0 9.6 
538 4 19.2 3.2 6.4 
539 9 22.4 -3.2 9.6 
540 5 -3.2 -8.15352 9.6 
541 3 -2.23281 -3.41384 9.35133 
542 3 22.2963 -3.40171 10.5957 
543 3 22.2399 -2.20255 9.45241 
544 8 21.4494 -4.07172 8.78909 
545 2 20.4436 -3.78957 9.097 
546 2 21.5972 -3.79102 7.74721 
547 6 21.1305 -6.1788 10.1015 
548 5 21.4542 -7.49774 10.375 
549 7 21.756 -5.51228 9.0514 
550 6 -2.90174 -6.17689 8.27116 
551 5 -2.58017 -7.49573 8.54719 
552 1 20.3724 -5.67714 10.6954 
553 1 20.9596 -8.01788 11.1854 
554 1 -2.43182 -5.67383 7.43141 
555 1 -2.95285 -9.18645 9.81083 
556 1 -1.8545 -8.01403 7.93342 
557 9 -3.2 3.2 9.6 
558 5 22.4 8.15352 9.6 
559 3 22.0581 3.41384 10.5383 
560 3 -2.1989 3.40171 9.59397 
561 3 22.2687 2.20255 9.42628 
562 8 21.6857 4.07172 8.57478 
563 2 22.0903 3.78957 7.60381 
564 2 20.6344 3.79102 8.62019 
565 6 -2.57696 6.1788 8.38549 
566 5 -2.33643 7.49774 8.7343 
567 7 21.9169 5.51228 8.90551 
568 6 21.0484 6.17689 9.76715 
569 5 21.2917 7.49573 10.1141 
570 1 -1.91191 5.67714 7.68899 
571 1 -1.48157 8.01788 8.32123 
572 1 20.1668 5.67383 10.1529 
573 1 -3.0143 9.18645 9.86655 
574 1 20.6101 8.01403 10.7764 
575 10 19.2 0 12.8 
576 4 -3.2 0 12.8 
577 4 19.2 -3.2 12.8 
578 4 19.2 0 16 
579 4 19.2 3.2 12.8 
580 9 22.4 -3.2 16 
581 5 22.4 -8.15352 16 
582 3 -2.23281 -3.41384 15.7513 
583 3 22.2963 -3.40171 16.9957 
584 3 22.2399 -2.20255 15.8524 
585 8 21.4494 -4.07172 15.1891 
586 2 20.4436 -3.78957 15.497 
587 2 21.5972 -3.79102 14.1472 
588 6 21.1305 -6.1788 16.5015 
589 5 21.4542 -7.49774 16.775 
590 7 21.756 -5.51228 15.4514 
591 6 -2.90174 -6.17689 14.6712 
592 5 -2.58017 -7.49573 14.9472 
593 1 20.3724 -5.67714 17.0954 
594 1 20.9596 -8.01788 17.5854 
595 1 -2.43182 -5.67383 13.8314 
596 1 -2.95285 -9.18645 16.2108 
597 1 -1.8545 -8.01403 14.3334 
598 9 -3.2 3.2 16 
599 5 22.4 8.15352 16 
600 3 22.0581 3.41384 16.9383 
601 3 -2.1989 3.40171 15.994 
602 3 22.2687 2.20255 15.8263 
603 8 21.6857 4.07172 14.9748 
604 2 22.0903 3.78957 14.0038 
605 2 20.6344 3.79102 15.0202 
606 6 -2.57696 6.1788 14.7855 
607 5 -2.33643 7.49774 15.1343 
608 7 21.9169 5.51228 15.3055 
609 6 21.0484 6.17689 16.1672 
610 5 21.2917 7.49573 16.5141 
611 1 -1.91191 5.67714 14.089 
612 1 -1.48157 8.01788 14.7212 
613 1 20.1668 5.67383 16.5529 
614 1 -3.0143 9.18645 16.2665 
615 1 20.6101 8.01403 17.1764 
616 10 19.2 0 19.2 
617 4 -3.2 0 19.2 
618 4 19.2 -3.2 19.2 
619 4 19.2 0 -3.2 
620 4 19.2 3.2 19.2 
621 9 22.4 -3.2 22.4 
622 5 -3.2 -8.15352 22.4 
623 3 -2.23281 -3.41384 22.1513 
624 3 22.2963 -3.40171 -2.20427 
625 3 22.2399 -2.20255 22.2524 
626 8 21.4494 -4.07172 21.5891 
627 2 20.4436 -3.78957 21.897 
628 2 21.5972 -3.79102 20.5472 
629 6 21.1305 -6.1788 -2.69846 
630 5 21.4542 -7.49774 -2.42504 
631 7 21.756 -5.51228 21.8514 
632 6 -2.90174 -6.17689 21.0712 
633 5 -2.58017 -7.49573 21.3472 
634 1 20.3724 -5.67714 -2.10456 
635 1 20.9596 -8.01788 -1.61457 
636 1 -2.43182 -5.67383 20.2314 
637 1 -2.95285 -9.18645 -2.98917 
638 1 -1.8545 -8.01403 20.7334 
639 9 -3.2 3.2 -3.2 
640 5 22.4 8.15352 -3.2 
641 3 22.0581 3.41384 -2.26169 
642 3 -2.1989 3.40171 22.394 
643 3 22.2687 2.20255 22.2263 
644 8 21.6857 4.07172 21.3748 
645 2 22.0903 3.78957 20.4038 
646 2 20.6344 3.79102 21.4202 
647 6 -2.57696 6.1788 21.1855 
648 5 -2.33643 7.49774 21.5343 
649 7 21.9169 5.51228 21.7055 
650 6 21.0484 6.17689 -3.03285 
651 5 21.2917 7.49573 -2.68587 
652 1 -1.91191 5.67714 20.489 
653 1 -1.48157 8.01788 21.1212 
654 1 20.1668 5.67383 -2.64712 
655 1 -3.0143 9.18645 -2.93345 
656 1 20.6101 8.01403 -2.02357 
ITEM: TIMESTEP
1000
ITEM: NUMBER OF ATOMS
656
ITEM: BOX BOUNDS pp pp pp
-3.2000000000000002e+00 2.2400000000000002e+01
-4.3779677730546460e+01 4.3779677730546460e+01
-3.2000000000000002e+00 2.2400000000000002e+01
ITEM: ATOMS id type x y z 
1 10 -1.04518 0.114282 -1.28886 
2 4 1.98091 0.149886 -1.37316 
3 4 -1.3626 -3.0892 -1.13663 
4 4 -0.997719 0.0894861 1.92928 
5 4 -1.09179 3.50205 -1.56078 
6 9 2.3422 -2.34839 2.756 
7 5 3.18751 -7.29383 2.19891 
8 3 3.3428 -2.17233 2.94086 
9 3 1.97357 -2.82507 3.60042 
10 3 1.87287 -1.4263 2.72987 
11 8 2.13139 -3.15589 1.47761 
12 2 1.07703 -3.04588 1.2 
13 2 2.72909 -2.70279 0.677755 
14 6 1.49043 -5.59932 1.76987 
15 5 1.83769 -6.93602 2.01974 
16 7 2.49483 -4.61705 1.67191 
17 6 3.8384 -4.98376 1.84359 
18 5 4.19163 -6.31514 2.11473 
19 1 0.449978 -5.29001 1.65542 
20 1 1.06264 -7.68976 2.10532 
21 1 4.61642 -4.21916 1.78775 
22 1 3.45852 -8.32148 2.41642 
23 1 5.23613 -6.56487 2.27756 
24 9 2.32071 2.48743 2.05243 
25 5 2.63492 7.45361 3.28554 
26 3 1.95935 2.38913 3.02035 
27 3 3.35532 2.56065 2.12992 
28 3 2.11218 1.59805 1.56336 
29 8 1.68805 3.68612 1.33382 
30 2 2.01276 3.66932 0.282687 
31 2 0.605155 3.512 1.34516 
32 6 3.33204 5.50503 2.00248 
33 5 3.64509 6.71605 2.64221 
34 7 2.01514 5.01693 1.99079 
35 6 1.01899 5.75105 2.64362 
36 5 1.32885 6.9446 3.31319 
37 1 4.12394 4.90776 1.54697 
38 1 4.67489 7.05893 2.66764 
39 1 -0.00114842 5.38706 2.63179 
40 1 2.87421 8.38197 3.79582 
41 1 0.536533 7.46883 3.84035 
42 10 -1.24273 0.150534 5.21737 
43 4 2.10058 0.119824 5.55594 
44 4 -1.07005 -3.0392 4.68874 
45 4 -1.36014 0.191413 8.40236 
46 4 -1.24022 3.11604 4.59688 
47 9 2.91554 -2.32147 8.43225 
48 5 2.12237 -7.28987 7.58905 
49 3 3.31265 -2.31824 7.47863 
50 3 3.64188 -2.70667 9.06193 
51 3 2.80657 -1.33096 8.69354 
52 8 1.60156 -3.09509 8.50968 
53 2 1.20705 -2.99839 9.53024 
54 2 0.885868 -2.62079 7.8259 
55 6 1.65737 -5.53115 9.1876 
56 5 1.8114 -6.90169 8.89619 
57 7 1.77339 -4.56493 8.17674 
58 6 2.02493 -4.96146 6.86256 
59 5 2.21592 -6.32254 6.56932 
60 1 1.4336 -5.21187 10.2062 
61 1 1.71065 -7.63406 9.69286 
62 1 2.04794 -4.22381 6.0615 
63 1 2.28104 -8.33669 7.35255 
64 1 2.45013 -6.60504 5.54525 
65 9 2.14552 2.22745 8.6302 
66 5 3.44096 6.96693 7.92255 
67 3 2.3683 2.42199 9.62246 
68 3 3.05692 2.16423 8.14429 
69 3 1.72108 1.2845 8.58746 
70 8 1.23731 3.27945 8.01288 
71 2 0.982626 2.94847 7.0073 
72 2 0.305554 3.32682 8.58999 
73 6 2.43083 5.08756 6.74623 
74 5 3.20814 6.2517 6.73355 
75 7 1.91241 4.61697 7.96508 
76 6 2.16165 5.31076 9.15958 
77 5 2.91967 6.48971 9.14178 
78 1 2.28586 4.49883 5.83657 
79 1 3.68311 6.55654 5.80596 
80 1 1.81743 4.90519 10.1116 
81 1 4.06973 7.85228 7.91592 
82 1 3.14574 7.00041 10.0744 
83 10 -0.983383 -0.0890794 11.6554 
84 4 1.95077 -0.129854 11.3071 
85 4 -1.46095 -3.06925 11.7494 
86 4 -0.997 0.0790797 14.8112 
87 4 -1.63313 3.06219 11.6509 
88 9 2.49479 -2.28489 14.9826 
89 5 2.31601 -7.44895 15.4118 
90 3 3.48654 -2.43029 14.7148 
91 3 2.45933 -2.29996 16.0188 
92 3 2.24844 -1.32173 14.6967 
93 8 1.56654 -3.32218 14.3518 
94 2 0.536244 -3.07387 14.6361 
95 2 1.63503 -3.21324 13.2628 
96 6 1.88026 -5.14836 16.0907 
97 5 2.09068 -6.50146 16.4232 
98 7 1.85348 -4.76024 14.7449 
99 6 2.06671 -5.7033 13.7346 
100 5 2.30722 -7.04683 14.0583 
101 1 1.7167 -4.41543 16.881 
102 1 2.10604 -6.78738 17.4716 
103 1 2.06598 -5.38252 12.6928 
104 1 2.49783 -8.4885 15.6654 
105 1 2.49893 -7.77408 13.2743 
106 9 2.11418 2.50705 15.3851 
107 5 2.31689 7.36763 15.5701 
108 3 1.59412 2.83462 16.2189 
109 3 3.11022 2.51444 15.6554 
110 3 1.84108 1.51934 15.2608 
111 8 1.8306 3.3374 14.1561 
112 2 2.42795 2.9661 13.319 
113 2 0.780476 3.15844 13.9171 
114 6 3.32479 5.29067 14.7679 
115 5 3.45886 6.57561 15.3281 
116 7 2.0448 4.80257 14.4596 
117 6 0.912389 5.59919 14.6881 
118 5 1.04238 6.88519 15.2372 
119 1 4.19578 4.64104 14.6669 
120 1 4.44618 6.92506 15.6237 
121 1 -0.080168 5.17791 14.5197 
122 1 2.42655 8.33514 16.0497 
123 1 0.154517 7.46491 15.4677 
124 10 -1.11299 0.0428066 18.1074 
125 4 1.87697 0.0651662 17.9385 
126 4 -1.33194 -2.93344 18.1879 
127 4 -1.04607 0.266916 21.1474 
128 4 -1.10441 3.29428 17.4882 
129 9 2.65656 -2.3871 21.3504 
130 5 2.01135 -7.33034 -3.12907 
131 3 3.61228 -2.55942 20.9847 
132 3 2.71831 -2.45211 -3.21779 
133 3 2.43309 -1.40056 21.1231 
134 8 1.63397 -3.36453 20.7693 
135 2 0.638724 -2.9793 21.0227 
136 2 1.71292 -3.32986 19.6775 
137 6 0.635526 -5.47181 21.7366 
138 5 0.749205 -6.74848 22.3057 
139 7 1.77587 -4.78471 21.2888 
140 6 3.03666 -5.39528 21.4085 
141 5 3.15333 -6.65307 22.0069 
142 1 -0.330163 -4.97739 21.6846 
143 1 -0.136994 -7.23588 -2.90169 
144 1 3.9304 -4.84742 21.1055 
145 1 2.11145 -8.28867 -2.62821 
146 1 4.13823 -7.07848 22.1765 
147 9 2.35928 2.6106 21.4909 
148 5 2.64488 7.57588 -3.20762 
149 3 2.18567 2.75432 -3.09549 
150 3 3.39053 2.56629 21.3855 
151 3 1.98562 1.67127 21.2688 
152 8 1.71702 3.72553 20.6478 
153 2 2.01389 3.59217 19.5991 
154 2 0.629206 3.57359 20.6849 
155 6 3.40042 5.5038 21.3843 
156 5 3.69301 6.72239 22.0126 
157 7 2.06305 5.12146 21.1529 
158 6 1.02718 6.00768 21.4909 
159 5 1.3149 7.22201 22.1323 
160 1 4.20501 4.80767 21.1458 
161 1 4.7209 6.97107 22.2654 
162 1 -0.0052814 5.69882 21.3466 
163 1 2.86364 8.4964 -2.67744 
164 1 0.494901 7.8525 22.4645 
165 10 5.23937 -0.0688891 -1.14834 
166 4 8.30569 -0.216696 -1.02537 
167 4 5.30292 -3.01427 -1.66746 
168 4 5.27349 -0.047059 2.00422 
169 4 5.20826 3.06031 -1.38602 
170 9 9.3131 -2.68482 1.92647 
171 5 7.95207 -7.64735 1.7084 
172 3 9.93354 -3.07656 1.20468 
173 3 9.78629 -2.8115 2.83441 
174 3 9.26919 -1.66761 1.7423 
175 8 7.92695 -3.32276 1.88903 
176 2 7.38141 -2.98108 2.77702 
177 2 7.39549 -2.90402 1.02807 
178 6 7.95336 -5.59812 2.98563 
179 5 7.9488 -6.99986 2.95329 
180 7 7.95205 -4.83996 1.80107 
181 6 7.97385 -5.48966 0.557986 
182 5 7.97616 -6.89789 0.519556 
183 1 7.94622 -5.07024 3.94224 
184 1 7.94383 -7.569 3.87891 
185 1 7.9877 -4.90381 -0.363951 
186 1 7.9492 -8.73144 1.66156 
187 1 7.99251 -7.40296 -0.44109 
188 9 8.76791 2.44234 2.53298 
189 5 9.4788 7.56525 2.36743 
190 3 8.39788 2.68278 3.47322 
191 3 9.79709 2.35495 2.63019 
192 3 8.39466 1.49669 2.32859 
193 8 8.35322 3.46626 1.46587 
194 2 8.72834 3.12658 0.495264 
195 2 7.25983 3.41329 1.39767 
196 6 10.1332 5.26515 1.85102 
197 5 10.4856 6.59808 2.13406 
198 7 8.77373 4.9064 1.74055 
199 6 7.78079 5.88863 1.90626 
200 5 8.12464 7.21235 2.24038 
201 1 10.9 4.4995 1.72551 
202 1 11.5352 6.86853 2.22235 
203 1 6.73407 5.59787 1.81232 
204 1 9.75706 8.57902 2.64027 
205 1 7.34105 7.94283 2.41748 
206 10 5.39634 0.134477 5.32689 
207 4 8.52095 -0.124047 5.20218 
208 4 5.02298 -3.02066 5.1834 
209 4 5.41306 0.203914 8.42763 
210 4 5.33924 3.13557 4.58268 
211 9 9.13098 -2.24358 8.48891 
212 5 9.13914 -7.23641 9.13373 
213 3 9.67029 -2.50346 7.64196 
214 3 9.78661 -2.29477 9.29213 
215 3 8.87388 -1.24978 8.37878 
216 8 7.91497 -3.11511 8.71298 
217 2 7.41818 -2.75179 9.61563 
218 2 7.2235 -2.9702 7.86946 
219 6 8.36539 -5.15832 10.1338 
220 5 8.78466 -6.4878 10.2653 
221 7 8.30649 -4.56945 8.85845 
222 6 8.62519 -5.31599 7.71627 
223 5 9.05467 -6.65275 7.85421 
224 1 8.12173 -4.54927 11.006 
225 1 8.86956 -6.91381 11.2601 
226 1 8.5812 -4.85787 6.72774 
227 1 9.50614 -8.25232 9.23973 
228 1 9.34814 -7.21595 6.97113 
229 9 8.91872 2.32011 8.65899 
230 5 7.77753 7.18298 9.61041 
231 3 8.45745 2.30854 9.58713 
232 3 9.91895 2.51465 8.84561 
233 3 8.87678 1.35255 8.30089 
234 8 8.29097 3.32193 7.68813 
235 2 8.87878 3.34584 6.76286 
236 2 7.30424 2.93485 7.40648 
237 6 9.24154 5.45646 8.68927 
238 5 9.07172 6.6873 9.35997 
239 7 8.1258 4.71289 8.27646 
240 6 6.83492 5.20468 8.51094 
241 5 6.66722 6.4303 9.18943 
242 1 10.2355 5.03827 8.56403 
243 1 9.94417 7.2149 9.73473 
244 1 5.9677 4.60305 8.22862 
245 1 7.63948 8.10308 10.1714 
246 1 5.66258 6.73492 9.4632 
247 10 5.20728 0.189833 11.6236 
248 4 8.45713 -0.0986307 11.6287 
249 4 4.93746 -3.29694 11.7526 
250 4 4.94365 0.332423 14.6222 
251 4 4.93801 3.13453 11.1651 
252 9 9.1544 -2.60277 14.7378 
253 5 7.8244 -7.35445 15.9507 
254 3 10.0907 -2.97365 14.4912 
255 3 9.12401 -2.5478 15.7739 
256 3 9.16032 -1.62774 14.3861 
257 8 8.00933 -3.41842 14.1349 
258 2 7.07669 -2.88782 14.3702 
259 2 8.12159 -3.40527 13.0453 
260 6 6.72089 -5.38369 15.0438 
261 5 6.64876 -6.62686 15.6848 
262 7 7.95725 -4.84071 14.6655 
263 6 9.12811 -5.59339 14.8739 
264 5 9.06006 -6.83724 15.5331 
265 1 5.81667 -4.78967 14.9023 
266 1 5.68496 -6.98676 16.0352 
267 1 10.1006 -5.1839 14.5977 
268 1 7.77134 -8.29542 16.4905 
269 1 9.98291 -7.36861 15.7449 
270 9 8.61918 2.5236 14.9353 
271 5 9.62334 7.45379 14.8045 
272 3 8.83049 2.65645 15.9415 
273 3 9.54255 2.48124 14.4564 
274 3 8.21012 1.57445 14.8454 
275 8 7.71051 3.60944 14.3408 
276 2 7.59107 3.38027 13.2735 
277 2 6.7161 3.53069 14.8003 
278 6 8.5786 5.76687 13.377 
279 5 9.23159 6.99915 13.5309 
280 7 8.28843 4.99769 14.5151 
281 6 8.64894 5.46737 15.796 
282 5 9.35624 6.67161 15.9409 
283 1 8.34095 5.37915 12.3838 
284 1 9.48683 7.57816 12.6496 
285 1 8.46315 4.85338 16.679 
286 1 10.1632 8.39093 14.9129 
287 1 9.69892 6.98095 16.927 
288 10 5.27168 -0.0308407 17.9389 
289 4 8.3678 -0.159588 17.6408 
290 4 4.72109 -2.97828 17.9935 
291 4 5.35439 0.179363 21.1261 
292 4 4.921 3.28606 17.8667 
293 9 8.40747 -2.44925 21.5104 
294 5 9.382 -7.40262 20.6113 
295 3 9.44356 -2.48088 21.4649 
296 3 8.1611 -2.66273 -3.10196 
297 3 8.13706 -1.45911 21.371 
298 8 7.72153 -3.38989 20.5044 
299 2 6.64716 -3.35484 20.7113 
300 2 7.86251 -2.97487 19.5062 
301 6 8.35802 -5.50625 21.7365 
302 5 8.9473 -6.77037 21.7864 
303 7 8.22005 -4.82576 20.5179 
304 6 8.60745 -5.47665 19.334 
305 5 9.18763 -6.75724 19.3758 
306 1 8.07291 -4.98936 -2.94747 
307 1 9.11148 -7.23963 -2.85163 
308 1 8.53162 -4.94451 18.386 
309 1 9.86107 -8.37611 20.6515 
310 1 9.53124 -7.21829 18.4558 
311 9 8.23778 2.68204 21.9609 
312 5 9.02385 7.57524 20.6267 
313 3 7.53018 3.18496 -3.08774 
314 3 9.12608 2.71695 -3.10533 
315 3 7.94963 1.68754 21.9549 
316 8 8.38478 3.27829 20.557 
317 2 9.19965 2.75747 20.0436 
318 2 7.46787 3.04993 20.0112 
319 6 9.90158 5.29528 20.8029 
320 5 10.097 6.68651 20.823 
321 7 8.61972 4.78008 20.5769 
322 6 7.54515 5.66944 20.3924 
323 5 7.74416 7.06227 20.3677 
324 1 10.7372 4.60647 20.932 
325 1 11.0986 7.07086 20.9799 
326 1 6.55461 5.2591 20.2006 
327 1 9.19643 8.64746 20.6362 
328 1 6.90587 7.72561 20.17 
329 10 11.5169 -0.0365262 -1.20884 
330 4 14.9518 -0.107249 -1.29583 
331 4 11.1685 -3.27666 -1.38627 
332 4 11.9231 -0.0402386 1.81437 
333 4 11.5671 3.05899 -1.32163 
334 9 15.8403 -2.16679 1.73506 
335 5 15.5033 -7.23109 1.79108 
336 3 16.3369 -2.22158 0.828699 
337 3 16.5045 -2.45159 2.47157 
338 3 15.6406 -1.16239 1.85766 
339 8 14.5617 -3.00506 1.73915 
340 2 13.9825 -2.74957 2.64015 
341 2 13.9523 -2.72375 0.867141 
342 6 14.6761 -5.22439 2.91142 
343 5 14.9745 -6.60425 2.93865 