LAMMPS (3 Mar 2020)
OMP_NUM_THREADS environment is not set. Defaulting to 1 thread. (src/comm.cpp:94)
  using 1 OpenMP thread(s) per MPI task
Reading data file ...
  orthogonal box = (-3.2 -43.7797 -3.2) to (22.4 43.7797 22.4)
  4 by 8 by 4 MPI processor grid
  reading atoms ...
  656 atoms
  scanning bonds ...
  4 = max bonds/atom
  scanning angles ...
  11 = max angles/atom
  scanning dihedrals ...
  21 = max dihedrals/atom
  reading bonds ...
  576 bonds
  reading angles ...
  960 angles
  reading dihedrals ...
  1248 dihedrals
Finding 1-2 1-3 1-4 neighbors ...
  special bond factors lj:   0          0          0.5       
  special bond factors coul: 0          0          0.833333  
  4 = max # of 1-2 neighbors
  7 = max # of 1-3 neighbors
  14 = max # of 1-4 neighbors
  16 = max # of special neighbors
  special bonds CPU = 0.0193049 secs
  read_data CPU = 0.124687 secs
PPPM initialization ...
  using 12-bit tables for long-range coulomb (src/kspace.cpp:332)
  G vector (1/distance) = 0.15861
  grid = 8 18 8
  stencil order = 5
  estimated absolute RMS force accuracy = 0.0216358
  estimated relative force accuracy = 6.51555e-05
  using double precision KISS FFT
  3d grid and FFT values/proc = 392 16
Neighbor list info ...
  update every 1 steps, delay 10 steps, check yes
  max neighbors/atom: 10000, page size: 100000
  master list distance cutoff = 17
  ghost atom cutoff = 17
  binsize = 8.5, bins = 4 11 4
  3 neighbor lists, perpetual/occasional/extra = 3 0 0
  (1) pair buck/coul/long, perpetual, skip from (3)
      attributes: half, newton off
      pair build: skip
      stencil: none
      bin: none
  (2) pair lj/cut/coul/long, perpetual, skip from (3)
      attributes: half, newton off
      pair build: skip
      stencil: none
      bin: none
  (3) neighbor class addition, perpetual
      attributes: half, newton off
      pair build: half/bin/newtoff
      stencil: half/bin/3d/newtoff
      bin: standard
Setting up Verlet run ...
  Unit style    : real
  Current step  : 0
  Time step     : 1
Per MPI rank memory allocation (min/avg/max) = 19.58 | 19.73 | 20.1 Mbytes
Step Temp Volume Density TotEng PotEng E_bond E_angle E_dihed E_coul E_long E_vdwl Enthalpy Press 
       0     298.000000   57382.899195       0.431122   -8970.011871   -9551.836184      18.560582      22.998292       4.401131   -5716.601650   -4576.398885     695.204344   -3629.225159    6381.853911 
    1000      89.549646   57382.899195       0.431122  -10854.742523  -11029.581989      11.718023      26.288653      18.465275   -5943.858984   -4643.201029    -498.993928  -12144.068655   -1540.651493 
    2000      71.242533   57382.899195       0.431122  -10963.103578  -11102.199679       9.890495      28.369514      18.681659   -6063.009919   -4645.383944    -450.747484  -11530.365093    -677.836490 
    3000      59.182793   57382.899195       0.431122  -11005.851619  -11121.401914       9.457622      29.172491      20.670670   -6114.747492   -4644.191869    -421.763336  -11425.271751    -501.176727 
    4000      49.664311   57382.899195       0.431122  -11037.159084  -11134.125202       8.914556      27.415823      19.193057   -6117.850186   -4644.428652    -427.369800  -11513.188287    -568.820475 
    5000      47.983204   57382.899195       0.431122  -11053.735843  -11147.419719       8.403305      27.819645      20.768681   -6071.736846   -4645.762688    -486.911815  -11620.302088    -677.005692 
    6000      44.033195   57382.899195       0.431122  -11065.415760  -11151.387517       7.246586      26.700496      17.772712   -6063.317518   -4646.794891    -492.994902  -11447.261724    -456.278314 
    7000      41.673871   57382.899195       0.431122  -11073.100155  -11154.465496       7.842805      26.661865      17.084537   -6090.503796   -4644.957182    -470.593724  -11464.686510    -467.917377 
    8000      42.339825   57382.899195       0.431122  -11080.835864  -11163.501433       8.478780      26.706862      17.454381   -6093.765513   -4645.149958    -477.225986  -11568.841804    -583.131808 
    9000      37.562329   57382.899195       0.431122  -11086.958632  -11160.296471       8.498591      27.394513      15.756652   -6078.799081   -4645.830179    -487.316968  -11584.410815    -594.419385 
   10000      37.915124   57382.899195       0.431122  -11093.489876  -11167.516523       8.528090      26.114894      17.197464   -6095.900833   -4645.968073    -477.488064  -11553.063707    -549.157496 
Loop time of 10.2165 on 128 procs for 10000 steps with 656 atoms

Performance: 84.569 ns/day, 0.284 hours/ns, 978.807 timesteps/s
99.9% CPU use with 128 MPI tasks x 1 OpenMP threads

MPI task timing breakdown:
Section |  min time  |  avg time  |  max time  |%varavg| %total
---------------------------------------------------------------
Pair    | 0.0025783  | 1.0304     | 4.8478     | 175.9 | 10.09
Bond    | 0.0012081  | 0.0631     | 0.26186    |  42.6 |  0.62
Kspace  | 2.9913     | 7.4799     | 9.3236     |  78.4 | 73.21
Neigh   | 0.043581   | 0.05641    | 0.070529   |   4.0 |  0.55
Comm    | 0.0040172  | 0.76155    | 1.421      |  56.3 |  7.45
Output  | 0.0079972  | 0.0080157  | 0.0080313  |   0.0 |  0.08
Modify  | 0.73721    | 0.74833    | 0.7596     |   0.9 |  7.32
Other   |            | 0.06881    |            |       |  0.67

Nlocal:    5.125 ave 24 max 0 min
Histogram: 96 0 0 0 0 0 0 13 10 9
Nghost:    900.406 ave 1756 max 0 min
Histogram: 32 16 16 0 0 0 0 0 32 32
Neighs:    451.516 ave 2885 max 0 min
Histogram: 96 0 2 0 12 3 3 2 3 7

Total # of neighbors = 57794
Ave neighs/atom = 88.1006
Ave special neighs/atom = 8.19512
Neighbor list builds = 73
Dangerous builds = 0
PPPM initialization ...
  using 12-bit tables for long-range coulomb (src/kspace.cpp:332)
  G vector (1/distance) = 0.15861
  grid = 8 18 8
  stencil order = 5
  estimated absolute RMS force accuracy = 0.0216358
  estimated relative force accuracy = 6.51555e-05
  using double precision KISS FFT
  3d grid and FFT values/proc = 392 16
Neighbor list info ...
  update every 1 steps, delay 10 steps, check yes
  max neighbors/atom: 10000, page size: 100000
  master list distance cutoff = 17
  ghost atom cutoff = 17
  binsize = 8.5, bins = 4 11 4
  3 neighbor lists, perpetual/occasional/extra = 3 0 0
  (1) pair buck/coul/long, perpetual, skip from (3)
      attributes: half, newton off
      pair build: skip
      stencil: none
      bin: none
  (2) pair lj/cut/coul/long, perpetual, skip from (3)
      attributes: half, newton off
      pair build: skip
      stencil: none
      bin: none
  (3) neighbor class addition, perpetual
      attributes: half, newton off
      pair build: half/bin/newtoff
      stencil: half/bin/3d/newtoff
      bin: standard
Setting up Verlet run ...
  Unit style    : real
  Current step  : 10000
  Time step     : 1
Per MPI rank memory allocation (min/avg/max) = 19.58 | 19.73 | 20.1 Mbytes
Step Temp Volume Density TotEng PotEng E_bond E_angle E_dihed E_coul E_long E_vdwl Enthalpy Press 
   10000      37.915124   57382.899195       0.431122  -11093.489876  -11167.516523       8.528090      26.114894      17.197464   -6095.900833   -4645.968073    -477.488064  -11553.063707    -549.157496 
   11000      89.828373   57331.216233       0.431511  -10813.320416  -10988.704079      13.850646      38.809901      40.405102   -6085.190407   -4643.466983    -353.112338  -11127.674652    -375.969204 
   12000     299.383045   57892.659385       0.427326   -9988.502647  -10573.027260      38.348326      89.178737      91.897902   -5898.831711   -4636.245045    -257.375470   -9773.095001     255.130115 
   13000     282.015420   57340.178752       0.431444  -10060.255049  -10610.870578      58.523925     109.863836     109.487747   -6053.639014   -4637.172393    -197.934680  -10428.702448    -440.596014 
   14000     302.716027   56794.880236       0.435586  -10024.662017  -10615.694046      57.672686     120.578726     122.792389   -5949.250252   -4639.942353    -327.545240  -10041.852584     -20.754157 
   15000     282.655556   56274.812103       0.439611  -10038.179996  -10590.045347      74.816223     137.626722     106.087245   -5967.747208   -4638.645521    -302.182809  -10082.389966     -53.867929 
   16000     306.564599   55987.795034       0.441865   -9997.469304  -10596.015402      83.946313     152.010794      98.005195   -6034.900959   -4636.590392    -258.486353  -10312.466673    -385.778192 
   17000     285.839538   55517.142896       0.445611  -10050.776532  -10608.858389     107.999946     146.950514     124.565439   -6155.738236   -4634.810612    -197.825439  -10126.296606     -93.273743 
   18000     284.406504   55460.236583       0.446068  -10060.250883  -10615.534840     115.689050     149.284703     103.964440   -6051.733496   -4638.333467    -294.406070  -10203.863330    -177.555641 
   19000     294.413728   54778.595462       0.451619  -10023.308013  -10598.130380     120.591603     170.465370     110.533087   -6087.625487   -4636.337929    -275.757024   -9941.048523     102.967278 
   20000     298.488809   54547.800189       0.453530  -10022.428996  -10605.207676     114.046025     178.177265     104.745753   -6154.354455   -4635.929879    -211.892385   -9861.590567     202.179302 
   21000     286.489959   54783.448943       0.451579  -10090.229162  -10649.580921     145.280872     152.351635      95.596067   -6081.834808   -4638.692104    -322.282584  -10440.580517    -438.509030 
   22000     307.076730   54871.451140       0.450855  -10031.758245  -10631.304243     140.751205     152.218932     128.411454   -6061.160791   -4639.648511    -351.876533  -10292.026896    -325.236685 
   23000     279.836125   53987.071864       0.458240  -10087.102184  -10633.462793     134.832196     180.817752     107.771761   -6171.209052   -4636.049017    -249.626432   -9946.727892     178.287919 
   24000     290.275930   54278.655646       0.455779  -10046.326307  -10613.069911     145.422350     180.298411     114.144053   -6141.198452   -4636.425244    -275.311028  -10017.354297      36.599374 
   25000     310.977874   54607.432156       0.453035  -10037.760861  -10644.923573     146.264626     182.269574      95.303187   -6099.162424   -4638.225382    -331.373152  -10285.108574    -310.584841 
   26000     273.877053   54809.296274       0.451366  -10083.486209  -10618.212143     133.325419     185.979577     100.037323   -6112.633831   -4637.645740    -287.274889  -10033.860366      62.083727 
   27000     306.647310   54734.256147       0.451985  -10017.750816  -10616.458402     165.281045     173.381411      99.111184   -6136.856182   -4640.632513    -276.743347   -9832.177094     232.477736 
   28000     291.048521   54216.283822       0.456303  -10065.689063  -10633.941095     146.500991     188.733810      93.117383   -6171.478531   -4637.271040    -253.543707  -10007.947513      73.026889 
   29000     289.434817   53738.342960       0.460361  -10086.724079  -10651.825468     156.959051     178.723946      92.224032   -6153.994634   -4639.089066    -286.648796   -9552.408649     681.769479 
   30000     284.978390   55712.309997       0.444050  -10083.500459  -10639.900982     154.703269     176.432680     102.140955   -6078.822006   -4640.012231    -354.343648  -10021.957081      75.745053 
   31000     309.860826   54563.409084       0.453400  -10019.115712  -10624.097466     172.046928     194.608182      94.710258   -6116.926953   -4642.017788    -326.518093  -10038.724262     -24.641554 
   32000     294.279417   54598.689104       0.453107  -10060.033422  -10634.593555     156.077305     186.451466     110.436680   -6146.524552   -4639.138445    -301.896009   -9924.840282     169.783917 
   33000     298.076425   54327.059352       0.455373  -10082.341331  -10664.314859     151.741355     184.529802      97.024768   -6129.780828   -4639.231739    -328.598217   -9952.438716     163.955431 
   34000     295.007272   54073.193238       0.457510  -10051.411324  -10627.392545     178.847833     193.252237      91.192213   -6170.795289   -4633.500922    -286.388616  -10182.874078    -166.703538 
   35000     281.184263   53445.067869       0.462887  -10111.137349  -10660.130104     160.297695     194.035782      96.175039   -6172.034020   -4640.358056    -298.246545   -9796.004798     404.305587 
   36000     305.000009   53802.427795       0.459813  -10060.934532  -10656.425876     155.457774     192.255938     103.869551   -6152.452270   -4640.065235    -315.491634   -9579.191071     613.957157 
   37000     300.453548   54435.783576       0.454463  -10039.883526  -10626.498222     187.412003     185.666138      82.119391   -6113.606488   -4637.187199    -330.902066  -10252.765965    -268.151030 
   38000     301.680420   54347.612990       0.455200  -10023.244642  -10612.254720     185.594050     191.432137     109.306668   -6133.112947   -4640.323748    -325.150879   -9853.031954     214.751184 
   39000     297.466124   53802.444243       0.459813  -10075.338650  -10656.120607     166.345024     187.970860     102.518901   -6178.374700   -4636.858309    -297.722384   -9917.337865     201.363777 
   40000     280.831554   53143.843825       0.465511  -10101.458697  -10649.762811     162.962064     179.768582      97.969642   -6176.479257   -4634.332673    -279.651169   -9847.631851     327.498036 
   41000     294.229312   54600.930596       0.453088  -10058.320533  -10632.782841     174.881683     195.248430     112.915388   -6126.715264   -4640.329566    -348.783513   -9794.922139     330.778436 
   42000     311.646237   54635.381879       0.452803  -10049.429497  -10657.897142     176.160300     179.270343      99.173876   -6152.057658   -4638.628807    -321.815195  -10020.216080      36.663378 
   43000     293.123278   54222.448789       0.456251  -10049.740497  -10622.043350     179.271008     198.391991     101.508698   -6156.014279   -4637.227831    -307.972938  -10395.027426    -436.641612 
   44000     285.650711   53196.357329       0.465052  -10101.255669  -10658.968854     166.336411     184.285028     103.805823   -6222.035895   -4634.960909    -256.399312   -9482.834507     797.125236 
   45000     294.035221   54292.210928       0.455665  -10072.894310  -10646.977667     161.854252     180.950964     113.321739   -6130.103224   -4638.593618    -334.407781  -10511.938880    -554.491883 
   46000     293.039474   53470.078197       0.462671  -10042.255504  -10614.394734     182.217167     215.520441     113.783722   -6231.134271   -4639.790833    -254.990959   -9907.949513     172.229950 
   47000     300.024079   53395.563278       0.463317  -10083.404442  -10669.180630     170.876084     194.898388      97.198051   -6193.916540   -4637.791312    -300.445301  -10261.195742    -228.312370 
   48000     285.941351   53896.451694       0.459011  -10122.004709  -10680.285348     147.736037     200.147548      91.428806   -6164.260724   -4638.973357    -316.363657  -10146.573582     -31.257134 
   49000     300.065217   53791.093637       0.459910  -10055.605032  -10641.461537     184.240023     192.565586     110.636598   -6167.339992   -4638.821161    -322.742593  -10544.744734    -623.514635 
   50000     310.597874   53784.990360       0.459962  -10051.486873  -10657.907661     184.167473     172.355537     111.760847   -6141.998670   -4639.783969    -344.408880  -10267.609758    -275.526752 
   51000     290.417689   53239.113945       0.464678  -10088.105890  -10655.126267     172.197841     200.162535     102.245618   -6204.387819   -4637.583424    -287.761019  -10099.305823     -14.424764 
   52000     286.243260   53968.553629       0.458398  -10124.142349  -10683.012444     175.934222     189.607544      94.876363   -6156.265730   -4639.235343    -347.929499  -10272.617642    -188.641622 
   53000     315.810753   54170.584850       0.456688  -10049.082196  -10665.680768     186.281374     181.519924     109.407594   -6188.949240   -4636.766551    -317.173869  -10558.169762    -644.396356 
   54000     279.256503   53743.229798       0.460319  -10107.031768  -10652.260705     182.474268     193.648460      97.417409   -6177.654534   -4638.401362    -309.744946   -9983.670743     157.390428 
   55000     304.114597   53781.176503       0.459995  -10059.162743  -10652.925383     173.008626     210.066569      88.575727   -6223.412546   -4637.052405    -264.111354  -10066.309101      -9.111263 
   56000     287.361520   54058.988936       0.457631  -10108.626611  -10669.680031     173.528916     197.651204      98.653960   -6177.253426   -4639.118794    -323.141891  -10113.848821      -6.623850 
   57000     295.729458   54013.468349       0.458016  -10071.028507  -10648.419744     184.042461     184.144136     107.663082   -6173.820094   -4640.349568    -310.099762   -9819.046150     319.883750 
   58000     285.902669   54205.212564       0.456396  -10098.180559  -10656.385675     184.048312     180.615085      93.942021   -6187.953417   -4638.159162    -288.878513   -9723.523707     473.932770 
   59000     305.554259   53529.971981       0.462153  -10027.423388  -10623.996869     186.694841     189.672238     106.489445   -6198.491668   -4635.943393    -272.418331   -9980.544645      60.048624 
   60000     305.056102   53728.865373       0.460442  -10089.235754  -10684.836616     163.467254     186.059349      95.045301   -6200.868898   -4636.201268    -292.338355  -10170.486704    -103.691914 
   61000     300.578153   53363.821655       0.463592  -10085.450300  -10672.308279     181.055508     193.634922      90.313572   -6174.514970   -4637.128004    -325.669308  -10371.046233    -366.968854 
   62000     290.239416   54241.405146       0.456092  -10118.775177  -10685.447490     155.339448     182.118548     102.461144   -6148.228233   -4638.747405    -338.390993   -9893.001093     285.408740 
   63000     282.496002   54217.640098       0.456292  -10065.302715  -10616.856549     189.694210     224.584595      92.728624   -6149.816547   -4637.968710    -336.078722  -10011.319168      68.272359 
   64000     287.154908   54519.231779       0.453767  -10083.491611  -10644.141634     190.338194     172.935703     105.205968   -6124.866065   -4640.459588    -347.295848  -10214.247130    -164.450203 
   65000     296.452591   53856.904318       0.459348  -10093.174244  -10671.977349     166.298822     183.150401      92.563347   -6199.102395   -4638.367295    -276.520229   -9668.934071     540.125294 
   66000     317.338011   54182.095980       0.456591  -10062.150234  -10681.730672     186.318787     179.842556      91.062253   -6196.580012   -4635.047640    -307.326616  -10400.154501    -427.750466 
   67000     287.860310   53929.876798       0.458726  -10055.864351  -10617.891624     195.044136     203.918375      91.078136   -6193.109201   -4634.933605    -279.889465   -9822.228476     297.053184 
   68000     289.580974   53745.163050       0.460303  -10095.983195  -10661.369944     185.689483     196.135686      91.916149   -6199.608801   -4638.072015    -297.430446  -10113.308147     -22.103283 
   69000     297.682225   53955.011009       0.458513  -10061.752658  -10642.956539     188.795196     195.930524     102.764688   -6201.724532   -4637.915833    -290.806583  -10018.046432      55.543805 
   70000     306.518814   53523.931707       0.462205  -10065.805859  -10664.262566     175.266985     188.074938     100.965691   -6184.244065   -4637.016029    -307.310086  -10345.004816    -357.676078 
   71000     293.141379   53004.989392       0.466731  -10127.243681  -10699.581876     166.061005     184.634442      98.150769   -6205.172209   -4637.023780    -306.232103   -9971.773124     201.120117 
   72000     305.482640   53321.177870       0.463963  -10095.809236  -10692.242884     170.425574     200.402201      86.966602   -6174.410077   -4638.949821    -336.677365  -10287.816483    -246.911886 
   73000     301.754915   53952.050612       0.458538  -10049.077982  -10638.233507     183.824236     204.498467      98.931416   -6197.009277   -4636.649467    -291.828882  -10193.842346    -183.983053 
   74000     305.587934   52701.868814       0.469415  -10079.274465  -10675.913693     182.213347     196.428015      82.960233   -6224.332304   -4636.231031    -276.951953  -10164.710746    -111.157926 
   75000     286.980859   53769.212442       0.460097  -10102.045961  -10662.356167     201.062538     183.874987      96.268365   -6175.967353   -4638.863331    -328.731373  -10189.561340    -111.602729 
   76000     289.217639   53378.390505       0.463466  -10113.065476  -10677.742840     171.902490     188.907361      98.318633   -6161.565387   -4637.800317    -337.505620  -10349.010814    -303.088904 
   77000     300.986508   53431.806916       0.463002  -10089.807293  -10677.462557     165.340280     182.231016     101.939639   -6184.606034   -4636.253197    -306.114262   -9875.816362     274.612068 
   78000     289.716049   53294.245539       0.464197  -10100.259230  -10665.909703     185.434895     201.479584      93.300155   -6212.022036   -4636.558083    -297.544218  -10279.989400    -231.240968 
   79000     286.785521   53622.201116       0.461358  -10081.124480  -10641.053302     174.200399     221.607548     114.440034   -6174.966228   -4638.252859    -338.082196  -10266.942175    -237.611001 
   80000     314.191382   54490.995782       0.454003  -10050.256556  -10663.693419     176.695804     205.958508      94.624293   -6129.652502   -4639.917151    -371.402371  -10373.982716    -407.358856 
   81000     294.241800   53473.143994       0.462644  -10123.283578  -10697.770268     175.776507     184.874283      87.904921   -6211.480165   -4637.807513    -297.038301   -9842.553849     359.978695 
   82000     301.961757   54008.067803       0.458062  -10058.307175  -10647.866544     188.557077     185.602358      96.719863   -6162.261801   -4638.756625    -317.727416  -10567.298434    -646.213155 
   83000     288.129806   53854.375335       0.459369  -10073.818613  -10636.372058     174.669469     182.022718     121.916284   -6197.131663   -4635.481951    -282.366915   -9883.562986     242.237083 
   84000     292.089096   53995.196641       0.458171  -10084.083219  -10654.366904     176.814256     183.735637     110.550379   -6175.681607   -4636.960719    -312.824849  -10206.968873    -156.052298 
   85000     294.218378   53521.044572       0.462230  -10055.482086  -10629.923045     193.900154     208.501264     100.897903   -6186.665861   -4636.975251    -309.581255  -10170.938045    -147.916248 
   86000     302.441777   54099.845583       0.457285  -10056.187978  -10646.684553     181.542489     183.613075     105.482918   -6177.013990   -4637.708553    -302.600492  -10542.052336    -615.804881 
   87000     287.940938   53751.727491       0.460247  -10070.526255  -10632.710948     170.684647     206.641352     104.533968   -6171.089711   -4637.040761    -306.440444  -10391.524549    -409.481617 
   88000     282.981571   53762.758032       0.460152  -10119.710539  -10672.212412     181.089757     187.100200      84.961696   -6238.291729   -4634.805062    -252.267275   -9978.632180     179.929747 
   89000     284.548878   54075.072058       0.457495  -10107.397260  -10662.959192     179.077504     192.788964      95.644145   -6148.333193   -4635.844899    -346.291712  -10290.076666    -231.641621 
   90000     306.084295   53866.648279       0.459265  -10050.464788  -10648.073127     181.508537     184.619220      97.130140   -6179.049399   -4638.680300    -293.601324  -10002.741280      60.748633 
   91000     299.665404   54066.379937       0.457568  -10103.784478  -10688.860377     170.872027     182.594563      94.808290   -6173.561522   -4638.786897    -324.786838  -10044.437823      75.264999 
   92000     292.076221   52954.581361       0.467175  -10085.654500  -10655.913046     169.046496     208.644247     104.527229   -6254.288252   -4636.199317    -247.643450   -9788.453606     384.831562 
   93000     290.689177   53996.311101       0.458162  -10117.514097  -10685.064535     172.008625     192.206246      96.565549   -6163.064124   -4638.749793    -344.031038  -10591.086688    -601.376674 
   94000     307.945323   54025.628204       0.457913  -10078.489708  -10679.731574     168.708644     189.186179     101.429440   -6180.897455   -4637.632276    -320.526107  -10064.913192      17.231084 
   95000     301.771060   53150.846097       0.465450  -10075.681827  -10664.868874     174.419105     211.824356      88.901945   -6213.552477   -4637.610796    -288.851006   -9764.964024     400.848317 
   96000     305.317200   54149.898194       0.456862  -10109.950121  -10706.060761     159.859979     178.810411      92.536575   -6121.155633   -4637.716056    -378.396037  -10498.377927    -491.854645 
   97000     302.573509   53332.461945       0.463865  -10062.796123  -10653.549895     180.159630     191.686185     104.012620   -6185.779269   -4637.739487    -305.889574  -10412.822508    -450.021498 
   98000     271.567998   54197.641924       0.456460  -10097.791360  -10628.009024     160.186088     213.514936     106.490085   -6154.916628   -4637.303253    -315.980252  -10136.380239     -48.820911 
   99000     294.992090   53916.219959       0.458842  -10080.091992  -10656.043569     159.141470     198.096959     107.698261   -6204.997870   -4633.502605    -282.479784  -10052.110212      35.586069 
  100000     296.230012   53756.691570       0.460204  -10054.156887  -10632.525423     171.402619     197.127221     116.026531   -6158.515401   -4638.673764    -319.892628   -9997.025806      72.872559 
  101000     292.385619   53996.174197       0.458163  -10075.787136  -10646.649762     178.779005     187.733836      96.753056   -6167.084947   -4635.583202    -307.247510  -10632.289438    -706.688601 
  102000     296.077124   54119.664477       0.457118  -10066.058335  -10644.128368     183.388178     201.342071      97.962287   -6153.240716   -4637.221144    -336.359043  -10521.261195    -576.731931 
  103000     295.062244   53589.367257       0.461641  -10137.497871  -10713.586421     165.351824     167.973525      93.395658   -6226.778165   -4638.034108    -275.495155  -10007.900680     165.821588 
  104000     306.394055   53574.829232       0.461766  -10056.731686  -10654.944809     181.661902     197.836949     101.018161   -6175.616001   -4638.071704    -321.774116  -10407.194471    -448.544177 
  105000     285.460873   52997.486058       0.466797  -10122.412290  -10679.754829     155.901245     205.864014      99.261106   -6206.194180   -4637.357058    -297.229957   -9751.619398     479.733715 
  106000     285.983132   54053.132373       0.457680  -10083.008411  -10641.370623     190.948804     212.024480      82.707751   -6156.339886   -4634.564740    -336.147032  -10391.872803    -391.806005 
  107000     298.089000   53058.288490       0.466262  -10079.904665  -10661.902745     178.817164     200.612987      87.978714   -6199.732161   -4637.656413    -291.923036  -10172.345982    -119.463985 
  108000     295.784041   54187.114078       0.456549  -10082.016246  -10659.514054     166.224438     215.589671      88.509948   -6132.807613   -4637.897558    -359.132939   -9900.922284     229.156436 
  109000     302.385043   53769.751231       0.460092  -10087.472167  -10677.857972     158.624587     194.391695     108.871012   -6165.336920   -4637.983520    -336.424825   -9913.227727     222.200490 
  110000     297.576443   54092.187716       0.457350  -10076.134940  -10657.132287     177.145268     195.159297     101.123919   -6207.951546   -4636.317317    -286.291907   -9942.986076     168.782349 
Loop time of 114.626 on 128 procs for 100000 steps with 656 atoms

Performance: 75.375 ns/day, 0.318 hours/ns, 872.401 timesteps/s
99.9% CPU use with 128 MPI tasks x 1 OpenMP threads

MPI task timing breakdown:
Section |  min time  |  avg time  |  max time  |%varavg| %total
---------------------------------------------------------------
Pair    | 0.025654   | 10.833     | 50.41      | 572.1 |  9.45
Bond    | 0.012491   | 0.75728    | 3.2122     | 148.1 |  0.66
Kspace  | 33.817     | 80.818     | 99.826     | 251.0 | 70.51
Neigh   | 1.3386     | 1.7244     | 2.1883     |  23.1 |  1.50
Comm    | 0.083227   | 7.9357     | 14.153     | 178.6 |  6.92
Output  | 0.065657   | 0.065755   | 0.066828   |   0.0 |  0.06
Modify  | 11.608     | 11.732     | 11.906     |   1.6 | 10.24
Other   |            | 0.7605     |            |       |  0.66

Nlocal:    5.125 ave 27 max 0 min
Histogram: 96 0 0 0 1 3 6 6 13 3
Nghost:    846.625 ave 1654 max 0 min
Histogram: 32 15 17 0 0 0 0 0 32 32
Neighs:    477.703 ave 2824 max 0 min
Histogram: 96 0 1 4 7 4 0 1 4 11

Total # of neighbors = 61146
Ave neighs/atom = 93.2104
Ave special neighs/atom = 8.19512
Neighbor list builds = 2378
Dangerous builds = 0
PPPM initialization ...
  using 12-bit tables for long-range coulomb (src/kspace.cpp:332)
  G vector (1/distance) = 0.159008
  grid = 8 18 8
  stencil order = 5
  estimated absolute RMS force accuracy = 0.0216605
  estimated relative force accuracy = 6.52299e-05
  using double precision KISS FFT
  3d grid and FFT values/proc = 392 16
Neighbor list info ...
  update every 1 steps, delay 10 steps, check yes
  max neighbors/atom: 10000, page size: 100000
  master list distance cutoff = 17
  ghost atom cutoff = 17
  binsize = 8.5, bins = 3 11 3
  3 neighbor lists, perpetual/occasional/extra = 3 0 0
  (1) pair buck/coul/long, perpetual, skip from (3)
      attributes: half, newton off
      pair build: skip
      stencil: none
      bin: none
  (2) pair lj/cut/coul/long, perpetual, skip from (3)
      attributes: half, newton off
      pair build: skip
      stencil: none
      bin: none
  (3) neighbor class addition, perpetual
      attributes: half, newton off
      pair build: half/bin/newtoff
      stencil: half/bin/3d/newtoff
      bin: standard
Setting up Verlet run ...
  Unit style    : real
  Current step  : 110000
  Time step     : 1
Per MPI rank memory allocation (min/avg/max) = 19.58 | 19.73 | 20.1 Mbytes
Step Temp Volume Density TotEng PotEng E_bond E_angle E_dihed E_coul E_long E_vdwl Enthalpy Press 
  110000     297.576443   54092.187716       0.457350  -10076.169477  -10657.166825     177.145268     195.159297     101.123919   -6196.450586   -4647.852815    -286.291907   -9943.147224     168.621855 
  111000     293.855373   54092.187716       0.457350  -10069.664328  -10643.396545     171.499296     206.492906     110.278772   -6220.376472   -4646.407190    -264.883857  -10085.561611     -20.151736 
  112000     300.771696   54092.187716       0.457350  -10113.342089  -10700.577946     158.010069     181.720195     107.442065   -6187.324176   -4650.925039    -309.501061  -10041.212876      91.432534 
  113000     300.065231   54092.187716       0.457350  -10059.743939  -10645.600473     185.029356     197.224986     104.370249   -6178.121973   -4650.720577    -303.382513   -9520.738535     683.254788 
  114000     301.027103   54092.187716       0.457350  -10061.996491  -10649.731014     198.512772     192.765100      96.322088   -6184.639687   -4650.428180    -302.263107  -10243.118977    -229.594740 
  115000     296.147378   54092.187716       0.457350  -10099.873169  -10678.080368     193.284458     185.946917      92.191304   -6166.601071   -4649.725351    -333.176624  -10480.749421    -482.806890 
  116000     298.529126   54092.187716       0.457350  -10066.901277  -10649.758674     181.896232     191.859584     109.956341   -6168.346612   -4646.694895    -318.429322  -10183.788372    -148.168583 
  117000     284.848430   54092.187716       0.457350  -10119.227363  -10675.374150     164.299829     204.780674      89.606530   -6170.735502   -4649.161671    -314.164010  -10186.809598     -85.668688 
  118000     304.975003   54092.187716       0.457350  -10038.751740  -10634.194264     187.893276     205.755284     105.838928   -6160.492231   -4647.847098    -325.342422  -10401.637004    -460.001129 
  119000     286.749165   54092.187716       0.457350  -10082.385514  -10642.243353     188.296916     200.503874     102.696055   -6162.098202   -4650.792372    -320.849624   -9978.545106     131.630324 
  120000     313.448556   54092.187716       0.457350  -10022.052141  -10634.038688     181.865453     222.177851     101.004356   -6175.385089   -4649.269242    -314.432017  -10056.089350     -43.146294 
  121000     295.710714   54092.187716       0.457350  -10065.262886  -10642.617528     184.255846     187.753893      99.969330   -6136.825592   -4648.290046    -329.480959   -9940.424508     158.247801 
  122000     298.573671   54092.187716       0.457350  -10082.081935  -10665.026301     192.713544     183.969983      96.289164   -6133.527205   -4650.929791    -353.541996  -10529.651926    -567.349302 
  123000     310.622329   54092.187716       0.457350  -10063.301738  -10669.770273     165.633886     201.465856      99.034546   -6158.028304   -4649.028074    -328.848183   -9872.409654     241.978891 
  124000     278.814539   54092.187716       0.457350  -10110.224574  -10654.590607     181.701720     207.129996      93.527657   -6175.157926   -4648.774321    -313.017734   -9857.483485     320.380014 
  125000     295.081420   54092.187716       0.457350  -10089.321244  -10665.447233     174.903436     196.817476      99.799465   -6164.174702   -4650.870581    -321.922327   -9812.982419     350.293009 
  126000     299.574530   54092.187716       0.457350  -10080.530622  -10665.429097     175.984333     206.809259      90.906200   -6200.257462   -4649.402958    -289.468470   -9840.723268     303.984935 
  127000     293.841107   54092.187716       0.457350  -10115.021539  -10688.725904     170.165275     198.925673      93.449861   -6180.810422   -4648.563707    -321.892584   -9968.273416     186.021061 
  128000     300.197552   54092.187716       0.457350  -10079.690420  -10665.805300     184.176391     204.316608      97.028202   -6161.029495   -4648.374904    -341.922103  -10225.183380    -184.429991 
  129000     303.628695   54092.187716       0.457350  -10049.030128  -10641.844077     204.761639     200.101257      96.616148   -6135.671426   -4650.847599    -356.804095  -10440.789339    -496.602361 
  130000     289.493140   54092.187716       0.457350  -10101.745262  -10666.960523     177.521483     196.814318      99.905350   -6156.135325   -4650.137603    -334.928745   -9961.490004     177.790567 
  131000     290.543633   54092.187716       0.457350  -10112.399501  -10679.665774     192.573364     181.928001      92.770414   -6155.658924   -4651.527817    -339.750812  -10439.073975    -414.099557 
  132000     298.208640   54092.187716       0.457350  -10072.090860  -10654.322529     182.347966     203.248500      95.666032   -6205.575678   -4651.117446    -278.891903   -9498.783185     726.737080 
  133000     288.151195   54092.187716       0.457350  -10133.106770  -10695.701975     178.244878     189.110803      86.591206   -6218.039640   -4649.943793    -281.665429   -9859.482204     346.852357 
  134000     295.821393   54092.187716       0.457350  -10095.050468  -10672.621202     187.563519     193.816765      99.034458   -6155.132815   -4651.913838    -345.989292  -10179.361389    -106.874328 
  135000     302.620192   54092.187716       0.457350  -10124.023188  -10714.868105     164.654865     171.724667      97.919304   -6149.257771   -4650.764947    -349.144224  -10357.415759    -295.853418 
  136000     301.167815   54092.187716       0.457350  -10061.619206  -10649.628459     187.237951     196.474366      94.660617   -6181.150225   -4650.466691    -296.384478   -9572.880830     619.535227 
  137000     285.675295   54092.187716       0.457350  -10132.622407  -10690.383590     179.719813     191.139841      92.833964   -6162.513839   -4649.942848    -341.620521  -10034.237855     124.714363 
  138000     287.500941   54092.187716       0.457350  -10065.319870  -10626.645499     210.419641     185.727673     109.631524   -6165.694192   -4649.435855    -317.294290  -10425.159165    -456.139993 
  139000     289.491008   54092.187716       0.457350  -10120.029156  -10685.240253     163.576094     193.509375     109.502915   -6146.456082   -4651.205819    -354.166735  -10060.918755      74.929610 
  140000     297.382661   54092.187716       0.457350  -10080.392287  -10661.011289     187.222879     179.744596     110.379398   -6144.951593   -4648.847172    -344.559398   -9974.722869     133.948816 
  141000     308.637905   54092.187716       0.457350  -10049.482058  -10652.076142     190.659098     196.091394      98.153617   -6121.566427   -4650.591875    -364.821949  -10497.275969    -567.633146 
  142000     283.350119   54092.187716       0.457350  -10128.767627  -10681.989065     173.674550     196.358611      96.117334   -6151.470328   -4650.052820    -346.616411  -10277.002721    -187.905979 
  143000     297.703348   54092.187716       0.457350  -10072.900389  -10654.145511     199.819804     187.525904     113.549894   -6172.906943   -4650.170610    -331.963562  -10352.579423    -354.527129 
  144000     293.844888   54092.187716       0.457350  -10100.173595  -10673.885341     192.123450     191.559940      95.689816   -6162.975247   -4648.811453    -341.471848  -10242.312680    -180.178546 
  145000     306.900213   54092.187716       0.457350  -10052.455742  -10651.657103     184.041679     198.341064     104.444903   -6171.081810   -4649.015827    -318.387112   -9923.042042     164.047575 
  146000     296.378400   54092.187716       0.457350  -10117.757336  -10696.415589     173.519722     191.250730      91.697294   -6172.503289   -4649.706892    -330.673154  -10173.131410     -70.193361 
  147000     311.327459   54092.187716       0.457350  -10045.395321  -10653.240573     180.285333     211.958164      94.451484   -6169.578914   -4649.525213    -320.831428   -9819.052804     286.916620 
  148000     287.410941   54092.187716       0.457350  -10086.971899  -10648.121810     179.887738     193.811661      96.655925   -6169.219867   -4650.647689    -298.609578   -9483.279308     765.253651 
  149000     308.913484   54092.187716       0.457350  -10056.878191  -10660.010325     193.376422     205.921255      87.053986   -6172.094212   -4649.653200    -324.614577  -10604.684492    -694.410993 
  150000     294.839938   54092.187716       0.457350  -10089.935277  -10665.589788     192.038651     184.404858      86.014382   -6180.034395   -4650.359078    -297.654206   -9774.727601     399.563997 
  151000     297.529480   54092.187716       0.457350  -10066.432715  -10647.338371     194.173585     195.670131     102.714355   -6175.204793   -4650.006149    -314.685499   -9934.383360     167.388589 
  152000     294.295072   54092.187716       0.457350  -10108.919113  -10683.509812     171.138189     190.752603      98.697500   -6207.453370   -4649.542303    -287.102431   -9799.911350     391.704855 
  153000     300.041661   54092.187716       0.457350  -10067.681002  -10653.491517     184.882356     200.729696      99.031596   -6182.651821   -4649.549604    -305.933742  -10442.902949    -475.639372 
  154000     288.837439   54092.187716       0.457350  -10117.477443  -10681.412493     180.745561     203.930524      81.320905   -6160.189071   -4649.517095    -337.703315  -10584.485951    -591.989981 
  155000     305.337436   54092.187716       0.457350  -10058.077016  -10654.227165     179.856678     171.662875     108.997893   -6137.473959   -4646.804290    -330.466362  -10479.960703    -534.788791 
  156000     285.341320   54092.187716       0.457350  -10103.702847  -10660.811967     194.084827     200.589621      89.685120   -6108.021064   -4652.249360    -384.901110  -10300.420442    -249.363434 
  157000     296.348680   54092.187716       0.457350  -10061.218460  -10639.818686     194.427069     197.739930      90.402552   -6161.816672   -4648.502831    -312.068734   -9742.235137     404.350087 
  158000     299.429007   54092.187716       0.457350  -10069.858904  -10654.473254     179.608702     199.434832     107.390603   -6163.861290   -4650.481298    -326.564803  -10119.617105     -63.074561 
  159000     301.158732   54092.187716       0.457350  -10086.765662  -10674.757181     186.734284     190.669026      99.054552   -6167.996912   -4651.585222    -331.632909  -10017.153855      88.241417 
  160000     289.795043   54092.187716       0.457350  -10084.330771  -10650.135476     181.146996     190.132172     110.085023   -6139.180242   -4651.033731    -341.285695  -10438.045730    -448.376653 
  161000     296.423338   54092.187716       0.457350  -10054.034225  -10632.780215     180.866567     206.817054     110.026244   -6174.501888   -4647.603628    -308.384564   -9980.757128      92.887617 
  162000     298.806311   54092.187716       0.457350  -10069.271405  -10652.669985     187.630011     195.094038      89.707597   -6147.605252   -4649.293646    -328.202733   -9713.607635     450.847009 
  163000     288.578680   54092.187716       0.457350  -10128.354304  -10691.784144     174.816892     166.151560      97.849468   -6171.538442   -4649.609433    -309.454188   -9936.888220     242.706506 
  164000     292.216364   54092.187716       0.457350  -10084.368681  -10654.900846     187.607957     196.702101     103.212200   -6183.469276   -4650.562983    -308.390844  -10107.063885     -28.768927 
  165000     310.454151   54092.187716       0.457350  -10028.215649  -10634.355828     188.403541     204.354526      94.924438   -6197.500236   -4647.594949    -276.943148   -9963.718022      81.758573 
  166000     294.499640   54092.187716       0.457350  -10079.196589  -10654.186693     195.811900     185.920192      97.422393   -6186.855587   -4647.656914    -298.828676  -10073.646404       7.035534 
  167000     285.632698   54092.187716       0.457350  -10129.470306  -10687.148320     182.997655     187.185725      91.012613   -6169.480986   -4647.809570    -331.053757  -10349.892534    -279.411934 
  168000     298.001553   54092.187716       0.457350  -10075.030782  -10656.858127     194.221572     190.688758     102.553333   -6191.391493   -4649.803096    -303.127201  -10146.592479     -90.713140 
  169000     316.191979   54092.187716       0.457350  -10037.607392  -10654.950281     180.985837     199.987358      88.471345   -6143.968771   -4649.633507    -330.792543   -9991.149286      58.891289 
  170000     305.361027   54092.187716       0.457350  -10054.089115  -10650.285323     183.524345     189.477678     100.646381   -6157.486947   -4647.818199    -318.628580  -10372.549227    -403.686855 
  171000     304.702883   54092.187716       0.457350  -10082.005368  -10676.916596     189.185676     174.413950      99.749137   -6140.386896   -4650.315997    -349.562466  -10061.984727      25.378593 
  172000     287.526390   54092.187716       0.457350  -10097.056313  -10658.431631     197.462636     189.692198     102.223603   -6180.485968   -4650.017084    -317.307015  -10140.536346     -55.116221 
  173000     310.306865   54092.187716       0.457350  -10062.634153  -10668.486767     176.853522     189.698645      94.030231   -6120.787588   -4649.367738    -358.913838  -10230.851855    -213.236360 
  174000     288.261542   54092.187716       0.457350  -10096.044145  -10658.854796     196.162451     193.364853      94.746726   -6176.827473   -4648.723211    -317.578143  -10117.694925     -27.444992 
  175000     306.377010   54092.187716       0.457350  -10060.749670  -10658.929515     173.982952     182.526604     114.805082   -6153.171519   -4649.723373    -327.349261   -9985.723399      95.104908 
  176000     306.497098   54092.187716       0.457350  -10055.376761  -10653.791069     173.719959     211.116725      86.220605   -6177.704989   -4649.572635    -297.570734   -9641.145032     525.089007 
  177000     285.559205   54092.187716       0.457350  -10109.407387  -10666.941913     193.709771     175.185428      92.705006   -6205.425555   -4644.675509    -278.441054  -10204.145234    -120.091722 
  178000     296.427722   54092.187716       0.457350  -10082.632329  -10661.386880     177.440043     218.455155      91.141116   -6202.493312   -4647.986384    -297.943499  -10072.643973      12.661454 
  179000     300.968362   54092.187716       0.457350  -10052.091200  -10639.711034     180.475937     197.182322     104.251188   -6179.740837   -4649.137908    -292.741737   -9917.664526     170.402128 
  180000     317.763106   54092.187716       0.457350  -10032.453566  -10652.863972     179.096753     189.880707     108.603101   -6167.139147   -4648.876215    -314.429171   -9726.959145     387.251268 
  181000     288.188807   54092.187716       0.457350  -10087.325194  -10649.993834     186.306924     191.974249     100.541284   -6165.421671   -4649.244468    -314.150151  -10037.545106      63.102305 
  182000     300.021698   54092.187716       0.457350  -10059.062123  -10644.833662     185.441160     209.165725      94.814272   -6116.784564   -4650.256744    -367.213512  -10231.409984    -218.471838 
  183000     310.912885   54092.187716       0.457350  -10017.646795  -10624.682621     179.626311     217.808743     107.482584   -6183.734079   -4649.397957    -296.468222   -9956.382852      77.659486 
  184000     285.459094   54092.187716       0.457350  -10088.615480  -10645.954545     170.353366     205.127130     105.879391   -6163.293293   -4651.507204    -312.513936   -9864.467703     284.134521 
  185000     304.337748   54092.187716       0.457350  -10084.337993  -10678.536319     167.777510     175.354029      99.932834   -6147.560003   -4648.713382    -325.327307  -10225.330342    -178.724920 
  186000     297.416166   54092.187716       0.457350  -10063.647340  -10644.331758     192.620622     200.836081      91.254168   -6157.474132   -4648.564445    -323.004052  -10531.525512    -593.092385 
  187000     307.817914   54092.187716       0.457350  -10078.874449  -10679.867558     166.542068     208.328065      87.617227   -6161.854919   -4651.779637    -328.720362   -9873.990047     259.715854 
  188000     297.654310   54092.187716       0.457350  -10071.746728  -10652.896106     176.076883     189.101437      94.653707   -6158.139167   -4651.836161    -302.752806   -9812.818959     328.222383 
  189000     308.770608   54092.187716       0.457350  -10035.394046  -10638.247224     173.176998     208.958805     102.019240   -6157.518690   -4650.094931    -314.788647  -10020.406157      18.998968 
  190000     282.107877   54092.187716       0.457350  -10115.315612  -10666.111658     183.112987     188.069359     100.486353   -6140.659299   -4649.742054    -347.379004  -10415.305504    -380.273608 
  191000     291.501258   54092.187716       0.457350  -10085.692658  -10654.828629     168.525512     195.720050     101.222286   -6130.359052   -4648.864023    -341.073402  -10254.671617    -214.201346 
  192000     284.359619   54092.187716       0.457350  -10119.582260  -10674.774677     177.317573     187.078788     104.577981   -6147.257598   -4652.659025    -343.832396  -10238.079034    -150.209048 
  193000     307.283846   54092.187716       0.457350  -10061.087223  -10661.037601     175.534148     182.075658     106.530317   -6126.063621   -4650.480320    -348.633784  -10214.221638    -194.116462 
  194000     285.870032   54092.187716       0.457350  -10110.140730  -10668.282124     168.145511     187.546586     103.880077   -6173.015101   -4649.283162    -305.556036  -10006.513058     131.360655 
  195000     291.798485   54092.187716       0.457350  -10082.223315  -10651.939601     177.728037     199.950748      99.863501   -6178.840340   -4651.218664    -299.422882   -9895.037399     237.280875 
  196000     275.665981   54092.187716       0.457350  -10124.653139  -10662.871831     173.064327     201.176792      97.361803   -6151.199025   -4653.138103    -330.137625  -10156.716386     -40.644059 
  197000     293.614765   54092.187716       0.457350  -10064.885406  -10638.147852     192.714031     204.822758      93.090409   -6208.047794   -4648.473891    -272.253365  -10220.558698    -197.334797 
  198000     287.998354   54092.187716       0.457350  -10087.506293  -10649.803088     162.174734     200.504482      94.939753   -6156.443642   -4646.949973    -304.028442   -9950.645264     173.487970 
  199000     294.960505   54092.187716       0.457350  -10081.256081  -10657.145992     162.603362     205.851809     110.232072   -6197.921239   -4648.079128    -289.832867  -10036.106829      57.232158 
  200000     301.969701   54092.187716       0.457350  -10067.683131  -10657.258011     179.344615     186.686091     100.336616   -6188.225843   -4648.875052    -286.524438  -10021.729631      58.251640 
  201000     285.253848   54092.187716       0.457350  -10081.694219  -10638.632555     194.825072     179.083161      98.625836   -6177.333563   -4648.026860    -285.806202  -10529.949845    -568.218427 
  202000     296.400855   54092.187716       0.457350  -10059.032973  -10637.735067     188.373658     194.390650      98.180389   -6164.070228   -4647.297676    -307.311861  -10477.186837    -530.060789 
  203000     292.365230   54092.187716       0.457350  -10082.196667  -10653.019484     186.107765     208.306599      90.443574   -6176.361646   -4650.545377    -310.970398  -10220.170995    -174.899211 
  204000     279.924073   54092.187716       0.457350  -10148.047751  -10694.580072     168.229649     189.845882      95.954173   -6148.324415   -4648.762223    -351.523137  -10575.203409    -541.471656 
  205000     310.544229   54092.187716       0.457350  -10080.085967  -10686.402016     180.080503     181.516992      84.517569   -6160.510461   -4651.261143    -320.745476   -9701.563697     479.822931 
  206000     305.229978   54092.187716       0.457350  -10074.270456  -10670.210800     145.965169     223.526539      98.064368   -6205.811023   -4649.317315    -282.638539   -9776.749289     377.144200 
  207000     290.777879   54092.187716       0.457350  -10123.432789  -10691.156413     177.635087     174.294591      97.214839   -6181.816482   -4648.235866    -310.248583  -10361.900261    -302.286472 
  208000     287.093419   54092.187716       0.457350  -10098.318930  -10658.848902     177.182451     187.875378      94.312934   -6165.940233   -4647.146549    -305.132883   -9936.373206     205.285866 
  209000     303.838961   54092.187716       0.457350  -10086.802515  -10680.026994     172.074936     192.831148      80.036208   -6146.103849   -4650.278931    -328.586506   -9994.780524     116.649045 
  210000     303.789337   54092.187716       0.457350  -10054.311548  -10647.439141     168.869121     191.326859      98.207781   -6122.277849   -4649.323994    -334.241060  -10010.387043      55.679644 
Loop time of 117.776 on 128 procs for 100000 steps with 656 atoms

Performance: 73.360 ns/day, 0.327 hours/ns, 849.073 timesteps/s
99.9% CPU use with 128 MPI tasks x 1 OpenMP threads

MPI task timing breakdown:
Section |  min time  |  avg time  |  max time  |%varavg| %total
---------------------------------------------------------------
Pair    | 0.025565   | 10.84      | 48.772     | 572.6 |  9.20
Bond    | 0.012518   | 0.75524    | 3.2222     | 148.0 |  0.64
Kspace  | 39.096     | 84.698     | 103.92     | 245.4 | 71.92
Neigh   | 1.1852     | 1.5485     | 1.9421     |  21.0 |  1.31
Comm    | 0.073876   | 7.9955     | 14.566     | 178.8 |  6.79
Output  | 0.055765   | 0.055834   | 0.056941   |   0.0 |  0.05
Modify  | 10.838     | 11.025     | 11.171     |   3.0 |  9.36
Other   |            | 0.8564     |            |       |  0.73

Nlocal:    5.125 ave 28 max 0 min
Histogram: 96 0 0 0 1 4 6 14 4 3
Nghost:    842.734 ave 1633 max 0 min
Histogram: 32 15 17 0 0 0 0 0 32 32
Neighs:    477.031 ave 2895 max 0 min
Histogram: 96 0 0 3 10 2 1 5 6 5

Total # of neighbors = 61060
Ave neighs/atom = 93.0793
Ave special neighs/atom = 8.19512
Neighbor list builds = 2042
Dangerous builds = 0
System init for write_restart ...
PPPM initialization ...
  using 12-bit tables for long-range coulomb (src/kspace.cpp:332)
  G vector (1/distance) = 0.159008
  grid = 8 18 8
  stencil order = 5
  estimated absolute RMS force accuracy = 0.0216605
  estimated relative force accuracy = 6.52299e-05
  using double precision KISS FFT
  3d grid and FFT values/proc = 392 16
Neighbor list info ...
  update every 1 steps, delay 10 steps, check yes
  max neighbors/atom: 10000, page size: 100000
  master list distance cutoff = 17
  ghost atom cutoff = 17
  binsize = 8.5, bins = 3 11 3
  3 neighbor lists, perpetual/occasional/extra = 3 0 0
  (1) pair buck/coul/long, perpetual, skip from (3)
      attributes: half, newton off
      pair build: skip
      stencil: none
      bin: none
  (2) pair lj/cut/coul/long, perpetual, skip from (3)
      attributes: half, newton off
      pair build: skip
      stencil: none
      bin: none
  (3) neighbor class addition, perpetual
      attributes: half, newton off
      pair build: half/bin/newtoff
      stencil: half/bin/3d/newtoff
      bin: standard
System init for write_data ...
PPPM initialization ...
  using 12-bit tables for long-range coulomb (src/kspace.cpp:332)
  G vector (1/distance) = 0.159008
  grid = 8 18 8
  stencil order = 5
  estimated absolute RMS force accuracy = 0.0216605
  estimated relative force accuracy = 6.52299e-05
  using double precision KISS FFT
  3d grid and FFT values/proc = 392 16
Neighbor list info ...
  update every 1 steps, delay 10 steps, check yes
  max neighbors/atom: 10000, page size: 100000
  master list distance cutoff = 17
  ghost atom cutoff = 17
  binsize = 8.5, bins = 3 11 3
  3 neighbor lists, perpetual/occasional/extra = 3 0 0
  (1) pair buck/coul/long, perpetual, skip from (3)
      attributes: half, newton off
      pair build: skip
      stencil: none
      bin: none
  (2) pair lj/cut/coul/long, perpetual, skip from (3)
      attributes: half, newton off
      pair build: skip
      stencil: none
      bin: none
  (3) neighbor class addition, perpetual
      attributes: half, newton off
      pair build: half/bin/newtoff
      stencil: half/bin/3d/newtoff
      bin: standard
Total wall time: 0:04:04
