ITEM: TIMESTEP
10000
ITEM: NUMBER OF ATOMS
656
ITEM: BOX BOUNDS pp pp pp
-3.2000000000000002e+00 2.2400000000000002e+01
-4.3779677730546460e+01 4.3779677730546460e+01
-3.2000000000000002e+00 2.2400000000000002e+01
ITEM: ATOMS id type x y z 
1 10 16.6472 0.657386 15.9908 
2 4 19.814 0.480421 16.4568 
3 4 16.7212 -2.31189 15.6588 
4 4 16.1248 0.661595 19.1364 
5 4 17.176 3.58536 16.2448 
6 9 20.7172 -2.14288 19.1673 
7 5 18.0321 -6.10813 20.9189 
8 3 21.4256 -2.88866 19.071 
9 3 20.7791 -1.79307 20.1377 
10 3 21.0481 -1.36988 18.5666 
11 8 19.3018 -2.57262 18.7987 
12 2 18.613 -1.74226 19.0016 
13 2 19.2871 -2.74442 17.7213 
14 6 19.0199 -3.89922 20.9269 
15 5 18.6177 -5.0463 21.6195 
16 7 18.85 -3.81032 19.5341 
17 6 18.2779 -4.87841 18.8325 
18 5 17.8667 -6.0336 19.5218 
19 1 19.4216 -3.04968 21.476 
20 1 18.7083 -5.06502 -2.89757 
21 1 18.1045 -4.79127 17.7608 
22 1 17.6854 -6.98543 21.4545 
23 1 17.397 -6.85157 18.9853 
24 9 19.0458 2.88681 19.4001 
25 5 20.6196 7.72573 19.996 
26 3 18.1673 3.24481 18.9931 
27 3 18.9421 2.96208 20.4243 
28 3 19.0598 1.87739 19.1696 
29 8 20.3043 3.58761 18.8946 
30 2 21.1699 3.06132 19.3111 
31 2 20.355 3.4908 17.8087 
32 6 21.6455 5.64203 19.2742 
33 5 21.7665 6.97921 19.6689 
34 7 20.3827 5.04365 19.2498 
35 6 19.2263 5.7976 19.5081 
36 5 19.3443 7.14322 19.877 
37 1 -3.07064 5.04538 19.0464 
38 1 -2.8418 7.41701 19.7479 
39 1 18.2386 5.34156 19.4343 
40 1 20.7219 8.74896 20.3405 
41 1 18.4543 7.71913 20.1116 
42 10 16.5436 0.670619 22.3383 
43 4 19.7378 0.495335 21.9111 
44 4 15.781 -2.30117 -3.19557 
45 4 16.8716 0.727364 -0.319961 
46 4 16.3938 3.64484 22.0232 
47 9 19.5012 -1.41611 0.542449 
48 5 19.0615 -6.35734 0.602855 
49 3 20.209 -1.62552 1.26483 
50 3 18.577 -1.51032 0.992277 
51 3 19.6159 -0.412398 0.326621 
52 8 19.6559 -2.29129 -0.693128 
53 2 18.927 -1.97747 -1.45106 
54 2 20.6617 -2.12567 -1.09422 
55 6 18.1439 -4.19004 -0.036212 
56 5 17.9566 -5.50244 0.427992 
57 7 19.4384 -3.73256 -0.320107 
58 6 20.5417 -4.57783 -0.141958 
59 5 20.3591 -5.89399 0.318135 
60 1 17.2926 -3.51309 -0.137866 
61 1 16.9552 -5.84105 0.680371 
62 1 21.5465 -4.18439 -0.312147 
63 1 18.9156 -7.36672 0.976208 
64 1 21.2243 -6.53125 0.482124 
65 9 19.8514 3.24809 0.382088 
66 5 20.3419 8.23016 -1.09553 
67 3 19.566 3.65627 1.29057 
68 3 20.8814 3.207 0.377446 
69 3 19.5277 2.26681 0.410388 
70 8 19.3066 4.00935 -0.82797 
71 2 19.6639 3.49811 -1.7341 
72 2 18.2198 3.88883 -0.788828 
73 6 20.9623 5.92687 -0.634939 
74 5 21.3185 7.28142 -0.752703 
75 7 19.649 5.49679 -0.880258 
76 6 18.6708 6.44911 -1.21552 
77 5 19.0185 7.80891 -1.321 
78 1 21.7279 5.18994 -0.397933 
79 1 22.3499 7.57121 -0.577595 
80 1 17.65 6.12241 -1.41237 
81 1 20.6068 9.27901 -1.18404 
82 1 18.2519 8.5294 -1.58811 
83 10 16.4087 1.05151 3.23941 
84 4 19.6118 0.926788 3.29056 
85 4 16.4392 -1.97576 3.01274 
86 4 16.2454 1.03705 6.32282 
87 4 16.6587 3.89238 2.54999 
88 9 20.4321 -1.49212 5.95264 
89 5 19.2305 -6.38995 5.18002 
90 3 20.4036 -1.48287 4.92168 
91 3 21.3511 -1.89375 6.21366 
92 3 20.4472 -0.51154 6.27002 
93 8 19.2478 -2.25982 6.54052 
94 2 19.3213 -2.20047 7.63023 
95 2 18.3259 -1.74173 6.24671 
96 6 19.1041 -4.77617 7.00879 
97 5 19.1294 -6.10738 6.55062 
98 7 19.1944 -3.71304 6.09073 
99 6 19.3079 -4.00867 4.72428 
100 5 19.3246 -5.33087 4.26118 
101 1 19.0022 -4.5587 8.07138 
102 1 19.046 -6.91487 7.27078 
103 1 19.3908 -3.1946 4.00552 
104 1 19.2377 -7.41439 4.82045 
105 1 19.4158 -5.51374 3.19425 
106 9 20.4293 2.97067 6.15167 
107 5 20.2588 8.02094 5.67211 
108 3 21.073 3.14104 6.94423 
109 3 20.9747 3.08142 5.27739 
110 3 20.1751 1.97184 6.20575 
111 8 19.1934 3.86246 6.17894 
112 2 18.5299 3.54739 5.36735 
113 2 18.6629 3.67586 7.11746 
114 6 19.5798 5.88848 4.74862 
115 5 19.9527 7.22685 4.55533 
116 7 19.5375 5.32797 6.03253 
117 6 19.9041 6.10033 7.1429 
118 5 20.2379 7.45641 6.96457 
119 1 19.3992 5.25348 3.8833 
120 1 20.0216 7.62341 3.54437 
121 1 19.9368 5.64563 8.13207 
122 1 20.5479 9.0603 5.54144 
123 1 20.5252 8.05587 7.82414 
124 10 16.7007 0.986681 9.62546 
125 4 19.655 0.944695 9.09231 
126 4 16.4523 -2.12389 9.42716 
127 4 17.1002 0.88139 12.7322 
128 4 16.2261 3.97028 9.47756 
129 9 19.8568 -1.70997 13.6874 
130 5 20.8863 -6.29396 11.75 
131 3 20.8842 -1.8135 13.7447 
132 3 19.4693 -2.07963 14.57 
133 3 19.6624 -0.696879 13.6859 
134 8 19.2659 -2.36377 12.4439 
135 2 18.1719 -2.352 12.5131 
136 2 19.5376 -1.74377 11.5784 
137 6 20.0609 -4.60533 13.3044 
138 5 20.6382 -5.86353 13.0683 
139 7 19.749 -3.77398 12.2204 
140 6 19.9298 -4.22811 10.9085 
141 5 20.5323 -5.47402 10.6642 
142 1 19.9107 -4.25747 14.3266 
143 1 20.9288 -6.47938 13.9146 
144 1 19.6712 -3.57019 10.0792 
145 1 21.3814 -7.24297 11.5712 
146 1 20.7651 -5.7633 9.64087 
147 9 19.8024 3.09201 13.7401 
148 5 18.6334 7.71049 12.2804 
149 3 18.7771 3.22394 13.7004 
150 3 20.094 3.36284 14.6968 
151 3 19.96 2.07475 13.6651 
152 8 20.5125 3.86579 12.6429 
153 2 21.5886 3.88157 12.8449 
154 2 20.3611 3.31936 11.7024 
155 6 19.9529 6.14424 13.5907 
156 5 19.2952 7.37628 13.4773 
157 7 19.9532 5.25529 12.5065 
158 6 19.3254 5.599 11.3081 
159 5 18.6568 6.82419 11.1898 
160 1 20.4218 5.84853 14.5299 
161 1 19.2638 8.05336 14.3265 
162 1 19.3232 4.88222 10.4853 
163 1 18.0908 8.64703 12.2035 
164 1 18.116 7.04113 10.2704 
165 10 -2.55334 0.490093 15.983 
166 4 0.490482 0.403293 15.7277 
167 4 -2.79773 -2.46739 15.9882 
168 4 -2.21358 0.519524 19.1418 
169 4 -2.41058 3.53911 15.9251 
170 9 0.585576 -1.80885 20.0024 
171 5 2.55992 -6.22826 18.7053 
172 3 1.62013 -1.79418 20.0298 
173 3 0.276177 -2.07141 20.9549 
174 3 0.298685 -0.825808 19.8809 
175 8 0.0456927 -2.73517 18.9075 
176 2 -1.02767 -2.89667 19.0615 
177 2 0.151055 -2.20767 17.9513 
178 6 1.14773 -4.73987 20.0056 
179 5 2.03994 -5.82729 19.9463 
180 7 0.795141 -4.04805 18.8384 
181 6 1.28537 -4.46728 17.6006 
182 5 2.18109 -5.54322 17.5331 
183 1 0.793059 -4.3845 20.9716 
184 1 2.37993 -6.29251 20.8679 
185 1 1.01904 -3.90911 16.7043 
186 1 3.2978 -7.02242 18.6588 
187 1 2.62427 -5.79822 16.5736 
188 9 0.680236 3.0369 18.3581 
189 5 1.01361 7.95161 19.925 
190 3 1.70811 3.15981 18.4045 
191 3 0.372807 3.32357 17.4109 
192 3 0.513108 2.01549 18.4107 
193 8 -0.0464627 3.77129 19.4809 
194 2 -1.12606 3.67532 19.321 
195 2 0.189622 3.23666 20.4097 
196 6 0.296199 6.09238 18.5205 
197 5 0.636014 7.44786 18.6711 
198 7 0.315729 5.234 19.6325 
199 6 0.706134 5.73353 20.8816 
200 5 1.07426 7.08032 21.0275 
201 1 0.0111344 5.69743 17.5436 
202 1 0.609225 8.0998 17.8035 
203 1 0.749069 5.06004 21.7372 
204 1 1.29488 8.99335 20.0454 
205 1 1.41248 7.43071 21.9995 
206 10 -2.69383 0.625863 22.2796 
207 4 0.480645 0.681828 -2.92133 
208 4 -2.63938 -2.47061 22.0604 
209 4 -3.09281 0.74312 -0.110856 
210 4 -2.60063 3.62015 -3.08904 
211 9 1.46094 -1.7749 0.0968702 
212 5 -0.451796 -6.38296 1.15402 
213 3 2.26587 -2.34259 -0.219019 
214 3 1.54568 -1.67224 1.12226 
215 3 1.60693 -0.830253 -0.295037 
216 8 0.109916 -2.35253 -0.329991 
217 2 -0.68844 -1.68574 0.0170511 
218 2 0.0769947 -2.3533 -1.42408 
219 6 -0.0366309 -4.01694 1.56285 
220 5 -0.231792 -5.321 2.04776 
221 7 -0.106977 -3.75601 0.188966 
222 6 -0.355973 -4.80505 -0.709455 
223 5 -0.528799 -6.12149 -0.230725 
224 1 0.140947 -3.20099 2.26538 
225 1 -0.204511 -5.48671 3.12153 
226 1 -0.440748 -4.5922 -1.77481 
227 1 -0.589325 -7.39298 1.52783 
228 1 -0.730423 -6.9278 -0.931767 
229 9 -0.262849 3.17692 0.0173788 
230 5 1.32567 8.01786 0.456251 
231 3 -1.22997 3.43001 -0.259338 
232 3 -0.189211 3.32886 1.039 
233 3 -0.211949 2.15185 -0.13184 
234 8 0.814283 3.91357 -0.803584 
235 2 1.76192 3.37234 -0.682172 
236 2 0.563615 3.83959 -1.86594 
237 6 2.2115 5.78249 0.155312 
238 5 2.38445 7.09639 0.612065 
239 7 1.00951 5.37271 -0.436839 
240 6 -0.00566155 6.30795 -0.665448 
241 5 0.152807 7.63722 -0.22376 
242 1 3.00577 5.049 0.272164 
243 1 3.30423 7.37104 1.12641 
244 1 -0.925148 5.98143 -1.15504 
245 1 1.44315 9.02944 0.835089 
246 1 -0.654233 8.34924 -0.366672 
247 10 -2.63387 0.795627 3.01171 
248 4 0.550102 0.772654 2.70815 
249 4 -3.05799 -2.26092 2.99517 
250 4 -2.40688 0.844275 6.07783 
251 4 -2.9674 3.76661 2.65204 
252 9 0.450104 -1.51936 6.96201 
253 5 0.418446 -6.54955 6.03082 
254 3 1.2567 -1.7719 7.55974 
255 3 -0.403348 -1.68406 7.52445 
256 3 0.501866 -0.49347 6.84631 
257 8 0.41809 -2.2395 5.61249 
258 2 -0.461847 -1.89705 5.06406 
259 2 1.29085 -1.91261 5.03642 
260 6 -0.805937 -4.45581 5.82571 
261 5 -0.802405 -5.84983 5.98685 
262 7 0.401093 -3.75118 5.73319 
263 6 1.61125 -4.44718 5.80192 
264 5 1.62811 -5.84681 5.93288 
265 1 -1.74736 -3.90643 5.78963 
266 1 -1.74489 -6.3817 6.07081 
267 1 2.54616 -3.88927 5.74445 
268 1 0.426677 -7.62824 6.14831 
269 1 2.58193 -6.36673 5.96461 
270 9 0.392021 3.15028 7.34639 
271 5 -0.779106 7.49805 4.79029 
272 3 -0.597803 2.87612 7.23942 
273 3 0.419328 3.81077 8.14179 
274 3 0.908041 2.31546 7.67824 
275 8 0.994668 3.73131 6.05807 
276 2 2.07727 3.83358 6.2039 
277 2 0.860527 2.99667 5.255 
278 6 1.19412 6.14495 5.29555 
279 5 0.623679 7.36062 4.86458 
280 7 0.376815 5.06258 5.64772 
281 6 -1.02197 5.21367 5.61281 
282 5 -1.59435 6.42508 5.17933 
283 1 2.27555 6.02289 5.29847 
284 1 1.26971 8.17544 4.55072 
285 1 -1.66635 4.36772 5.85084 
286 1 -1.22422 8.41328 4.41398 
287 1 -2.67638 6.48282 5.09096 
288 10 -2.95266 0.654415 9.7211 
289 4 0.183497 0.348862 9.94512 
290 4 -2.99514 -2.3837 8.87292 
291 4 -3.16883 0.62192 12.6713 
292 4 -2.75011 3.65965 9.30858 
293 9 1.42969 -2.04685 12.7143 
294 5 -0.919459 -6.40015 11.3139 
295 3 1.40329 -1.72948 11.7305 
296 3 2.21545 -2.7125 12.7936 
297 3 1.70435 -1.23215 13.2873 
298 8 0.0968198 -2.62603 13.1784 
299 2 0.164478 -2.75322 14.2642 
300 2 -0.691128 -1.88102 12.9974 
301 6 -0.620763 -5.0493 13.3204 
302 5 -0.915695 -6.28626 12.7196 
303 7 -0.275989 -3.94359 12.5291 
304 6 -0.269067 -4.06606 11.1297 
305 5 -0.606015 -5.2827 10.5196 
306 1 -0.676873 -4.93398 14.4035 
307 1 -1.17295 -7.13959 13.3409 
308 1 -0.0211899 -3.2015 10.5101 
309 1 -1.1917 -7.33915 10.842 
310 1 -0.648827 -5.3322 9.433 
311 9 0.851858 2.6934 12.9543 
312 5 0.344327 7.67438 13.669 
313 3 0.854794 2.85763 13.9774 
314 3 1.82928 2.79199 12.6256 
315 3 0.599394 1.70286 12.7943 
316 8 -0.0800772 3.64983 12.2239 
317 2 0.0845999 3.54203 11.1497 
318 2 -1.10556 3.32925 12.4322 
319 6 1.35724 5.56803 13.0241 
320 5 1.48581 6.86489 13.5349 
321 7 0.0926897 5.08615 12.6476 
322 6 -1.0433 5.8921 12.7829 
323 5 -0.92233 7.18503 13.3134 
324 1 2.23591 4.9332 12.9288 
325 1 2.46161 7.22162 13.8543 
326 1 -2.02151 5.4844 12.5261 
327 1 0.440525 8.668 14.0917 
328 1 -1.81426 7.78724 13.4594 
329 10 3.63764 0.516096 16.0681 
330 4 6.82839 0.65116 16.1384 
331 4 3.75763 -2.42251 15.4866 
332 4 3.38425 0.55824 19.0613 
333 4 3.38045 3.52201 15.8511 
334 9 7.62437 -1.56285 19.0865 
335 5 6.75107 -6.43807 19.377 
336 3 8.21038 -1.87666 18.2983 
337 3 8.14769 -1.76368 19.957 
338 3 7.56986 -0.536195 19.0165 
339 8 6.24456 -2.19745 19.0838 
340 2 5.66849 -1.80643 19.927 
341 2 5.722 -1.90418 18.1716 
342 6 6.44107 -4.28975 20.4499 
343 5 6.64758 -5.66893 20.543 
344 7 6.32403 -3.69261 19.1871 
345 6 6.40114 -4.46132 18.0177 
346 5 6.62135 -5.84375 18.1101 
347 1 6.41673 -3.66921 21.3483 
348 1 6.75242 -6.13053 21.5199 
349 1 6.36575 -3.97342 17.0442 
350 1 6.94322 -7.5027 19.4569 
351 1 6.73607 -6.43913 17.2086 
352 9 7.193 3.0212 19.575 
353 5 6.5729 8.13429 19.022 
354 3 6.93985 3.1999 20.566 
355 3 8.20148 3.2258 19.4799 
356 3 7.0949 2.00458 19.4228 
357 8 6.3364 3.83184 18.6118 
358 2 6.63606 3.59257 17.5884 
359 2 5.29539 3.50009 18.7321 
360 6 7.66561 5.99182 18.6364 
361 5 7.73706 7.38716 18.7569 
362 7 6.42969 5.33845 18.7694 
363 6 5.25929 6.08243 18.9716 
364 5 5.33054 7.47924 19.1246 
365 1 8.56022 5.40473 18.4256 
366 1 8.69646 7.88156 18.6495 
367 1 4.30135 5.56448 19.0495 
368 1 6.63234 9.21333 19.1239 
369 1 4.42202 8.04053 19.3223 
370 10 3.75177 0.710095 -3.16701 
371 4 6.91802 0.437381 22.0893 
372 4 3.39297 -2.38502 -3.08055 
373 4 4.17244 0.866511 -0.0439711 
374 4 3.89581 3.62881 22.0531 
375 9 7.01811 -1.22649 0.648969 
376 5 7.48179 -5.99105 1.15347 
377 3 7.88983 -1.31209 1.1992 
378 3 6.23835 -1.43546 1.29265 
379 3 6.93536 -0.227667 0.401658 
380 8 7.00252 -2.11627 -0.58138 
381 2 6.06714 -1.94978 -1.12203 
382 2 7.83635 -1.82471 -1.22524 
383 6 6.03811 -4.31171 0.159852 
384 5 6.19042 -5.54097 0.817754 
385 7 7.15916 -3.54727 -0.17299 
386 6 8.44868 -4.01314 0.114597 
387 5 8.60827 -5.22917 0.793598 
388 1 5.0416 -3.90384 -0.0131183 
389 1 5.31133 -6.09225 1.14068 
390 1 9.3134 -3.38147 -0.103827 
391 1 7.59251 -6.90918 1.72014 
392 1 9.60676 -5.53448 1.09495 
393 9 6.9149 3.52159 0.915257 
394 5 8.44608 7.87704 -1.34614 
395 3 6.60569 4.18329 1.64693 
396 3 7.89863 3.28114 1.12841 
397 3 6.36444 2.66317 1.08282 
398 8 6.69987 4.02501 -0.506822 
399 2 7.06535 3.26698 -1.21597 
400 2 5.6164 4.09064 -0.656812 
401 6 8.70115 5.58454 -0.56358 
402 5 9.24943 6.85011 -0.81426 
403 7 7.33407 5.36404 -0.812607 
404 6 6.53634 6.36886 -1.37146 
405 5 7.09519 7.63463 -1.63935 
406 1 9.33127 4.77589 -0.190026 
407 1 10.3026 7.02608 -0.617763 
408 1 5.49295 6.16988 -1.62527 
409 1 8.88231 8.8475 -1.55399 
410 1 6.47417 8.40847 -2.08115 
411 10 3.7938 0.896021 3.25641 
412 4 7.07638 0.936234 3.46234 
413 4 3.87519 -2.2348 2.91768 
414 4 3.41714 0.615044 6.38799 
415 4 3.92969 3.82871 3.17422 
416 9 8.07111 -1.49805 6.2304 
417 5 6.29827 -6.10816 7.39473 
418 3 8.99946 -1.79663 5.88917 
419 3 8.08699 -1.61852 7.25624 
420 3 8.00643 -0.484668 6.05502 
421 8 6.91082 -2.24081 5.58623 
422 2 6.00239 -1.64699 5.76051 
423 2 7.05748 -2.28033 4.50272 
424 6 5.46555 -3.9512 6.6378 
425 5 5.26041 -5.16447 7.29742 
426 7 6.72515 -3.63488 6.13637 
427 6 7.78616 -4.55558 6.25166 
428 5 7.57313 -5.80755 6.86811 
429 1 4.66828 -3.21051 6.55792 
430 1 4.29315 -5.35955 7.75299 
431 1 8.77979 -4.27612 5.90031 
432 1 6.12085 -7.04807 7.90904 
433 1 8.40016 -6.50089 7.00114 
434 9 7.97347 3.17577 6.45524 
435 5 5.84171 7.1618 8.67618 
436 3 8.0718 3.1807 7.48437 
437 3 8.85895 3.53064 6.06276 
438 3 7.90778 2.18734 6.17047 
439 8 6.75673 3.94065 5.97149 
440 2 6.89107 4.17969 4.91177 
441 2 5.90103 3.2508 6.03595 
442 6 7.49178 5.84122 7.47897 
443 5 7.1865 6.82456 8.43401 
444 7 6.46276 5.1692 6.79974 
445 6 5.12453 5.49759 7.05939 
446 5 4.81198 6.49319 7.99652 
447 1 8.53077 5.55844 7.32691 
448 1 7.98678 7.27219 9.01762 
449 1 4.33076 4.89658 6.61633 
450 1 5.59723 7.8938 9.43594 
451 1 3.77053 6.67919 8.25056 
452 10 3.9313 0.581915 9.63046 
453 4 6.99485 0.747575 8.94982 
454 4 3.39646 -2.3884 9.57426 
455 4 4.03303 0.657566 12.6677 
456 4 3.16362 3.37714 9.76692 
457 9 6.89255 -1.85623 13.5811 
458 5 8.34681 -6.28126 11.5293 
459 3 7.89088 -1.60552 13.6598 
460 3 6.68716 -2.4835 14.3761 
461 3 6.34456 -1.00288 13.7626 
462 8 6.50669 -2.45235 12.2373 
463 2 5.41761 -2.5591 12.2434 
464 2 6.76016 -1.74698 11.4343 
465 6 6.35326 -4.89563 11.6521 
466 5 6.94977 -6.1453 11.4234 
467 7 7.14616 -3.78775 11.987 
468 6 8.53264 -3.9219 12.0957 
469 5 9.13147 -5.16213 11.8565 
470 1 5.27714 -4.75867 11.5464 
471 1 6.33057 -6.99223 11.1451 
472 1 9.15469 -3.05498 12.3241 
473 1 8.8305 -7.23375 11.3328 
474 1 10.2151 -5.23254 11.8838 
475 9 6.51529 3.06914 13.4927 
476 5 7.03802 7.94459 12.1019 
477 3 5.54556 3.29914 13.767 
478 3 7.13339 3.38526 14.2587 
479 3 6.57328 2.03856 13.4876 
480 8 6.90522 3.6372 12.1327 
481 2 7.89182 3.24635 11.8658 
482 2 6.20225 3.26436 11.3771 
483 6 8.18028 5.80301 12.1912 
484 5 8.22852 7.20214 12.1373 
485 7 6.94537 5.14274 12.1305 
486 6 5.75114 5.88061 12.1297 
487 5 5.79587 7.28334 12.1432 
488 1 9.09597 5.22048 12.2632 
489 1 9.19105 7.7044 12.1483 
490 1 4.79709 5.3537 12.1159 
491 1 7.08209 9.02951 12.0779 
492 1 4.87062 7.85248 12.1481 
493 10 10.0724 0.712982 15.8159 
494 4 13.3436 0.755936 15.4648 
495 4 9.86736 -2.31805 15.9154 
496 4 10.2615 0.813965 18.8685 
497 4 9.84079 3.76092 15.4311 
498 9 13.3587 -1.69785 19.9373 
499 5 14.5756 -6.19207 17.8998 
500 3 14.3857 -1.62394 19.8497 
501 3 13.1788 -2.18924 20.8308 
502 3 12.9886 -0.746588 20.083 
503 8 12.7242 -2.3884 18.7362 
504 2 11.6424 -2.45673 18.8984 
505 2 12.8719 -1.74076 17.8631 
506 6 13.6231 -4.6417 19.5157 
507 5 14.2551 -5.86444 19.2275 
508 7 13.2995 -3.75874 18.4723 
509 6 13.6052 -4.09749 17.1554 
510 5 14.2735 -5.29369 16.8647 
511 1 13.4104 -4.36189 20.5463 
512 1 14.5308 -6.53348 20.0374 
513 1 13.4033 -3.37818 16.3597 
514 1 15.1069 -7.10963 17.6728 
515 1 14.5948 -5.48815 15.8445 
516 9 13.2689 2.86662 19.5682 
517 5 13.1016 7.82733 19.6053 
518 3 12.4133 3.02353 20.1246 
519 3 14.0721 3.01847 20.2028 
520 3 13.2796 1.86049 19.3407 
521 8 13.3148 3.72885 18.3166 
522 2 14.2243 3.48409 17.7637 
523 2 12.4675 3.44654 17.6808 
524 6 14.4291 5.90045 18.9563 
525 5 14.3574 7.22268 19.4141 
526 7 13.2533 5.19431 18.6593 
527 6 11.9961 5.79977 18.8153 
528 5 11.9214 7.11764 19.3031 
529 1 15.3935 5.3919 18.8863 
530 1 15.2721 7.74562 19.6765 
531 1 11.0912 5.21316 18.6389 
532 1 13.045 8.82797 20.0201 
533 1 10.9456 7.55349 19.4941 
534 10 10.0588 0.841732 -3.18942 
535 4 13.202 1.03152 -3.00735 
536 4 10.2826 -2.20657 22.0556 
537 4 9.7636 1.05486 0.00150814 
538 4 10.0346 3.75714 21.7239 
539 9 14.0108 -1.55747 0.211906 
540 5 13.0332 -6.57646 0.454169 
541 3 14.9196 -1.91451 -0.136726 
542 3 14.0394 -1.61318 1.24321 
543 3 14.0014 -0.552422 -0.029468 
544 8 12.8154 -2.30626 -0.373234 
545 2 11.888 -1.85761 0.0097523 
546 2 12.8332 -2.13641 -1.45056 
547 6 12.9888 -4.27577 1.22558 
548 5 13.0715 -5.6538 1.50763 
549 7 12.8604 -3.80371 -0.0935757 
550 6 12.8375 -4.7285 -1.14418 
551 5 12.9154 -6.1066 -0.870099 
552 1 13.0433 -3.55649 2.04339 
553 1 13.168 -5.98153 2.5412 
554 1 12.7677 -4.36356 -2.16999 
555 1 13.1103 -7.64252 0.647574 
556 1 12.8818 -6.81536 -1.69209 
557 9 13.9767 3.30011 -0.309947 
558 5 13.3224 8.2069 -0.592854 
559 3 14.6083 3.57596 0.459314 
560 3 14.4624 3.49004 -1.20468 
561 3 13.9 2.27027 -0.248295 
562 8 12.6063 3.98381 -0.217278 
563 2 11.9734 3.60838 -1.03189 
564 2 12.1265 3.69638 0.724921 
565 6 12.9374 6.03275 -1.5876 
566 5 13.2277 7.39442 -1.73209 
567 7 12.7414 5.47937 -0.317403 
568 6 12.8049 6.28765 0.823713 
569 5 13.1021 7.6569 0.682542 
570 1 12.8967 5.38548 -2.46823 
571 1 13.4026 7.79989 -2.72426 
572 1 12.675 5.84544 1.81403 
573 1 13.5688 9.25886 -0.695278 
574 1 13.1889 8.27485 1.57202 
575 10 10.337 1.01316 3.03752 
576 4 13.3561 1.05314 2.57266 
577 4 10.1496 -1.99286 3.16157 
578 4 10.6455 0.994555 6.29059 
579 4 9.97029 4.02824 3.37532 
580 9 13.7033 -1.33549 7.00626 
581 5 14.1235 -6.35709 6.32505 
582 3 14.7138 -1.4443 7.17523 
583 3 13.2319 -1.60052 7.8885 
584 3 13.5281 -0.324836 6.87584 
585 8 13.2553 -2.16343 5.82254 
586 2 12.1737 -2.03662 5.75714 
587 2 13.6936 -1.74662 4.90885 
588 6 12.5289 -4.53159 6.15718 
589 5 12.7923 -5.89688 6.30923 
590 7 13.5794 -3.62439 5.99642 
591 6 14.9118 -4.07853 6.04663 
592 5 15.1844 -5.44344 6.20725 
593 1 11.5063 -4.1528 6.16125 
594 1 11.9682 -6.5941 6.42578 
595 1 15.7241 -3.35469 5.99007 
596 1 14.3219 -7.41661 6.44892 
597 1 16.2179 -5.77602 6.25138 
598 9 13.4104 3.49633 7.36613 
599 5 14.9815 7.73807 5.00531 
600 3 13.3467 4.10933 8.19623 
601 3 14.3978 3.20975 7.2976 
602 3 12.8722 2.65067 7.606 
603 8 12.903 4.13065 6.08439 
604 2 13.0314 3.40642 5.26966 
605 2 11.8283 4.29608 6.20648 
606 6 15.0241 5.41967 5.71151 
607 5 15.7089 6.57946 5.33073 
608 7 13.6202 5.41467 5.74649 
609 6 12.8923 6.57024 5.42661 
610 5 13.5755 7.7444 5.06408 
611 1 15.5875 4.51343 5.93777 
612 1 16.7945 6.5592 5.25827 
613 1 11.8038 6.53066 5.41729 
614 1 15.52 8.62465 4.68772 
615 1 13.0224 8.63815 4.79174 
616 10 10.2083 0.717554 9.5878 
617 4 13.3792 0.857099 9.89925 
618 4 10.4769 -2.24664 8.98739 
619 4 9.72763 0.524764 12.6705 
620 4 10.3688 3.6785 9.54424 
621 9 14.1993 -1.71157 12.6279 
622 5 12.8965 -6.58897 11.8893 
623 3 14.5203 -1.73875 11.6448 
624 3 14.9317 -2.161 13.2055 
625 3 14.197 -0.712188 12.9013 
626 8 12.8238 -2.36349 12.7969 
627 2 12.4973 -2.19967 13.8273 
628 2 12.1137 -1.83863 12.1477 
629 6 12.4692 -4.78327 13.4547 
630 5 12.4907 -6.15841 13.1643 
631 7 12.8333 -3.84654 12.4716 
632 6 13.2306 -4.27876 11.196 
633 5 13.2811 -5.65175 10.909 
634 1 12.1462 -4.43899 14.4389 
635 1 12.1886 -6.87789 13.9219 
636 1 13.4744 -3.55709 10.416 
637 1 12.9247 -7.64811 11.6558 
638 1 13.6035 -5.9727 9.92129 
639 9 12.387 3.08708 12.8827 
640 5 14.069 7.51687 14.8587 
641 3 11.4397 3.39909 12.6041 
642 3 12.3795 3.05039 13.9134 
643 3 12.4838 2.11184 12.5518 
644 8 13.5107 3.98877 12.3879 
645 2 14.4383 3.39909 12.4072 
646 2 13.3228 4.23042 11.3354 
647 6 14.9702 5.60223 13.6518 
648 5 15.1616 6.71012 14.4983 
649 7 13.6859 5.25295 13.2118 
650 6 12.593 6.05896 13.5742 
651 5 12.7871 7.19615 14.3829 
652 1 15.8185 4.96742 13.389 
653 1 16.1505 6.8973 14.9118 
654 1 11.5885 5.79154 13.2559 
655 1 14.2064 8.3581 15.5333 
656 1 11.9279 7.7853 14.687 
ITEM: TIMESTEP
11000
ITEM: NUMBER OF ATOMS
656
ITEM: BOX BOUNDS pp pp pp
-3.2144326826586500e+00 2.2414432682658649e+01
-4.3779677730546460e+01 4.3779677730546460e+01
-3.0807382358230235e+00 2.2280738235822955e+01
ITEM: ATOMS id type x y z 
1 10 14.0636 0.579324 13.3397 
2 4 17.5269 0.630494 13.1981 
3 4 14.1492 -2.60347 12.9968 
4 4 14.0183 0.682092 16.4895 
5 4 14.5229 3.46164 13.4742 
6 9 18.1006 -1.52125 16.2588 
7 5 17.5086 -6.60197 16.9798 
8 3 18.6766 -1.87575 15.4892 
9 3 18.7208 -1.47806 17.0877 
10 3 17.8725 -0.546451 16.0154 
11 8 16.8568 -2.37355 16.4903 
12 2 16.3395 -1.99256 17.3739 
13 2 16.1816 -2.21171 15.6464 
14 6 17.3405 -4.38083 17.9308 
15 5 17.494 -5.75993 18.1122 
16 7 17.1281 -3.84889 16.6494 
17 6 17.1679 -4.67868 15.5182 
18 5 17.4076 -6.05578 15.6866 
19 1 17.3217 -3.71036 18.7936 
20 1 17.6392 -6.16676 19.1101 
21 1 16.9962 -4.25174 14.5277 
22 1 17.6591 -7.66619 17.1212 
23 1 17.4517 -6.69588 14.8095 
24 9 17.1292 3.06791 16.5234 
25 5 18.3943 8.05083 16.9515 
26 3 16.1359 3.28288 16.3138 
27 3 17.2487 3.16046 17.55 
28 3 17.2333 2.06379 16.2945 
29 8 18.0841 3.95794 15.7183 
30 2 19.0899 3.58425 15.8861 
31 2 17.8696 3.79399 14.6573 
32 6 19.405 6.032 16.1052 
33 5 19.5369 7.34263 16.539 
34 7 18.1284 5.43574 16.0352 
35 6 16.9658 6.18942 16.306 
36 5 17.1058 7.50219 16.7825 
37 1 20.2966 5.43614 15.9075 
38 1 20.525 7.76664 16.6789 
39 1 15.9809 5.71911 16.2536 
40 1 18.511 9.0325 17.4029 
41 1 16.2311 8.0668 17.0934 
42 10 14.1844 0.731538 19.8115 
43 4 17.2565 0.491271 19.4139 
44 4 14.0395 -2.22357 19.8515 
45 4 14.5428 0.632944 -2.56015 
46 4 14.2494 3.80261 19.5228 
47 9 17.3857 -1.45843 -1.79289 
48 5 18.1069 -6.4144 -1.9091 
49 3 18.1691 -1.60881 -1.14432 
50 3 16.5105 -1.64088 -1.27114 
51 3 17.377 -0.450673 -2.01841 
52 8 17.4922 -2.30786 -3.03418 
53 2 16.6002 -2.15909 21.734 
54 2 18.3206 -1.92511 21.7408 
55 6 16.5982 -4.56513 -2.3874 
56 5 16.8014 -5.89865 -1.98794 
57 7 17.6961 -3.75186 -2.6961 
58 6 18.9958 -4.23892 -2.55699 
59 5 19.2013 -5.56401 -2.15157 
60 1 15.5898 -4.14714 -2.44121 
61 1 15.9436 -6.52222 -1.75106 
62 1 19.8395 -3.56816 -2.72636 
63 1 18.2671 -7.44446 -1.6068 
64 1 20.216 -5.92472 -2.01362 
65 9 17.5787 3.13655 -2.122 
66 5 17.7394 7.87424 -1.28765 
67 3 17.2249 3.2093 -1.14792 
68 3 18.5832 3.36993 -2.07561 
69 3 17.4947 2.1397 -2.3808 
70 8 16.8258 4.07204 -3.05396 
71 2 17.116 3.85964 21.2689 
72 2 15.7595 3.86036 -2.92594 
73 6 18.47 5.84274 -2.42661 
74 5 18.7711 7.04105 -1.75478 
75 7 17.1329 5.50069 -2.67617 
76 6 16.1051 6.33403 -2.21486 
77 5 16.4047 7.51029 -1.50453 
78 1 19.2812 5.17125 -2.71349 
79 1 19.8072 7.25052 -1.50606 
80 1 15.0732 6.0068 -2.33028 
81 1 17.9717 8.76925 -0.718749 
82 1 15.5896 8.10351 -1.09771 
83 10 14.1428 0.693791 0.744831 
84 4 17.1898 0.833618 0.814105 
85 4 14.1489 -2.2919 0.456777 
86 4 14.0444 0.798058 3.8808 
87 4 14.3593 3.7337 0.362085 
88 9 17.9428 -1.45388 3.68156 
89 5 17.08 -6.60389 3.10001 
90 3 18.1356 -1.38739 2.66971 
91 3 18.8044 -1.83816 4.095 
92 3 17.8506 -0.492867 4.04807 
93 8 16.7218 -2.33212 3.9712 
94 2 16.472 -2.18468 5.02955 
95 2 15.8846 -1.94557 3.38353 
96 6 16.6076 -4.78398 4.6504 
97 5 16.7115 -6.16138 4.38582 
98 7 16.8846 -3.82805 3.66417 
99 6 17.3364 -4.29675 2.41804 
100 5 17.3827 -5.66994 2.11226 
101 1 16.2834 -4.44551 5.63572 
102 1 16.4985 -6.87926 5.17514 
103 1 17.5156 -3.58161 1.6144 
104 1 17.1029 -7.66808 2.88793 
105 1 17.6448 -5.97247 1.10091 
106 9 17.6238 2.93786 3.79781 
107 5 18.5137 7.76178 3.02541 
108 3 18.4922 2.93459 4.3579 
109 3 17.9088 3.06296 2.80889 
110 3 17.1808 2.00775 3.87866 
111 8 16.7437 4.0533 4.30922 
112 2 15.7086 3.89425 3.98209 
113 2 16.7893 3.99658 5.40462 
114 6 17.4136 5.65058 2.49827 
115 5 18.0814 6.81305 2.07972 
116 7 17.2525 5.38622 3.85447 
117 6 17.7443 6.28738 4.80538 
118 5 18.3328 7.4937 4.39218 
119 1 17.1464 4.90456 1.75631 
120 1 18.313 6.92901 1.03 
121 1 17.6843 6.04633 5.86636 
122 1 19.0373 8.65218 2.69557 
123 1 18.7329 8.17717 5.13594 
124 10 14.0829 1.01591 7.09679 
125 4 17.2054 0.966491 6.99425 
126 4 13.7288 -2.02839 7.16422 
127 4 14.1869 0.772051 10.3098 
128 4 14.0197 3.94149 7.21258 
129 9 18.0103 -1.4226 10.2058 
130 5 18.9498 -6.15138 10.7235 
131 3 18.8421 -1.43668 9.59123 
132 3 18.3229 -1.632 11.1735 
133 3 17.6338 -0.461385 10.2096 
134 8 17.0265 -2.45659 9.69355 
135 2 16.0418 -2.30783 10.1637 
136 2 16.9003 -2.30598 8.61588 
137 6 17.6766 -4.18027 11.355 
138 5 18.3877 -5.33183 11.7234 
139 7 17.5899 -3.82028 9.99813 
140 6 18.1233 -4.64301 8.99043 
141 5 18.814 -5.80795 9.36139 
142 1 17.3135 -3.4901 12.1197 
143 1 18.5831 -5.52802 12.7758 
144 1 18.0745 -4.3406 7.94653 
145 1 19.5479 -7.01053 11.0093 
146 1 19.3001 -6.4042 8.5976 
147 9 16.7828 3.17364 10.7026 
148 5 15.8375 8.06737 10.6947 
149 3 15.8011 3.29128 10.391 
150 3 16.7639 3.21537 11.7304 
151 3 17.0513 2.20306 10.4761 
152 8 17.7092 4.23569 10.1361 
153 2 18.7033 4.12056 10.5836 
154 2 17.8153 4.03852 9.06218 
155 6 17.0168 6.17005 11.6407 
156 5 16.3627 7.39537 11.8124 
157 7 17.165 5.63119 10.3517 
158 6 16.7135 6.34282 9.23711 
159 5 16.0303 7.55291 9.39974 
160 1 17.3318 5.59108 12.51 
161 1 16.2006 7.76416 12.8205 
162 1 16.8052 5.9029 8.24876 
163 1 15.2641 8.98078 10.8267 
164 1 15.6097 8.06277 8.53504 
165 10 20.7244 0.691828 13.0795 
166 4 -1.58009 0.5042 12.8433 
167 4 20.5156 -2.45428 13.4036 
168 4 20.8098 0.890637 16.1884 
169 4 20.9856 3.4712 13.0521 
170 9 -1.85967 -1.41063 17.369 
171 5 -0.697997 -6.03782 16.1134 
172 3 -0.829879 -1.46077 17.3135 
173 3 -2.10341 -1.77325 18.3068 
174 3 -2.1328 -0.417331 17.3636 
175 8 -2.53024 -2.18599 16.2678 
176 2 22.027 -2.23377 16.4712 
177 2 -2.40379 -1.63631 15.3292 
178 6 -1.98361 -4.37244 17.2886 
179 5 -1.41586 -5.64611 17.2538 
180 7 -1.95398 -3.5659 16.1507 
181 6 -1.38704 -4.01677 14.9504 
182 5 -0.726805 -5.2572 14.9433 
183 1 -2.48136 -4.01653 18.189 
184 1 -1.42144 -6.26665 18.145 
185 1 -1.38816 -3.37502 14.0668 
186 1 -0.177467 -6.99002 16.1116 
187 1 -0.199698 -5.57077 14.0466 
188 9 -1.40444 3.11618 15.6733 
189 5 -1.59126 8.1239 17.0852 
190 3 -0.415017 3.18271 15.9711 
191 3 -1.44436 3.41797 14.6825 
192 3 -1.66272 2.11346 15.6669 
193 8 -2.33828 3.90695 16.591 
194 2 22.2686 3.81078 16.2178 
195 2 -2.32887 3.4308 17.578 
196 6 -2.12151 6.22674 15.6618 
197 5 -1.87852 7.59854 15.8024 
198 7 -2.04515 5.37612 16.7772 
199 6 -1.76504 5.90103 18.046 
200 5 -1.526 7.2808 18.2092 
201 1 -2.36065 5.79072 14.6898 
202 1 -1.92102 8.25006 14.935 
203 1 -1.78656 5.24095 18.9149 
204 1 -1.41823 9.18934 17.1974 
205 1 -1.30738 7.66732 19.2027 
206 10 20.4635 0.885331 19.672 
207 4 -2.09018 1.03052 19.9136 
208 4 20.54 -2.02009 19.4502 
209 4 20.3784 0.899591 -2.44643 
210 4 20.4871 3.98235 19.6397 
211 9 -0.971497 -1.35682 -2.37318 
212 5 -2.46975 -6.21216 -1.29784 
213 3 -0.0559773 -1.72362 -2.69343 
214 3 -0.922296 -1.29612 -1.34505 
215 3 -1.00307 -0.387228 -2.72827 
216 8 -2.15406 -2.18297 -2.88437 
217 2 -3.07627 -1.66075 -2.60959 
218 2 -2.11781 -2.1883 21.3841 
219 6 -2.21418 -3.80889 -0.938439 
220 5 -2.41502 -5.10983 -0.414292 
221 7 -2.19656 -3.59509 -2.32428 
222 6 -2.28799 -4.68247 22.163 
223 5 -2.38391 -5.99513 -2.68472 
224 1 -2.15881 -2.95906 -0.25953 
225 1 -2.495 -5.23623 0.664042 
226 1 -2.2897 -4.50396 21.0886 
227 1 -2.60026 -7.21277 -0.896285 
228 1 -2.44184 -6.83248 21.9893 
229 9 -2.73214 3.4822 -2.38018 
230 5 -2.01395 8.63915 -2.84726 
231 3 21.9314 3.55348 -2.74796 
232 3 -2.75724 3.72307 -1.37444 
233 3 -2.49767 2.47693 -2.45115 
234 8 -1.7569 4.35152 22.1863 
235 2 -0.736472 4.04709 -2.90074 
236 2 -1.89098 4.11193 21.1251 
237 6 -0.730198 6.6259 22.1162 
238 5 -0.818263 8.0224 22.1478 
239 7 -1.87982 5.85178 -3.01822 
240 6 -3.1047 6.45676 -2.71205 
241 5 -3.14922 7.84654 -2.56173 
242 1 0.221174 6.12175 21.9159 
243 1 0.0673002 8.61131 21.9438 
244 1 21.6379 5.84145 -2.54505 
245 1 -2.07708 9.71679 -2.73859 
246 1 21.5618 8.34163 -2.26558 
247 10 20.4882 0.912434 0.602692 
248 4 -1.8178 1.10132 0.659961 
249 4 20.3581 -2.04328 0.737891 
250 4 20.6698 1.19442 3.59655 
251 4 20.3369 3.82097 0.34376 
252 9 -1.00789 -1.13417 3.66794 
253 5 -2.03528 -5.95089 4.83165 
254 3 -0.0386635 -1.35359 3.38 
255 3 -1.02305 -1.11881 4.7014 
256 3 -1.17664 -0.163708 3.3639 
257 8 -2.03719 -2.04284 3.05353 
258 2 -3.01302 -1.56801 3.19608 
259 2 -1.84605 -2.12027 1.97839 
260 6 -3.20558 -3.92821 4.24264 
261 5 -3.22861 -5.22192 4.7763 
262 7 -2.01729 -3.40006 3.70357 
263 6 -0.819813 -4.11133 3.80281 
264 5 -0.818889 -5.38054 4.40561 
265 1 21.5014 -3.37353 4.08882 
266 1 21.4572 -5.64755 5.11638 
267 1 0.106236 -3.68948 3.41234 
268 1 -2.03962 -6.96665 5.21472 
269 1 0.1034 -5.95082 4.48071 
270 9 -1.93967 3.20425 4.2139 
271 5 -1.2084 8.02687 5.07963 
272 3 -2.66771 3.35948 4.93415 
273 3 -1.02628 3.2023 4.70396 
274 3 -2.09237 2.25294 3.8414 
275 8 -2.00638 4.26465 3.12904 
276 2 -1.27285 4.03867 2.34393 
277 2 -3.00069 4.19579 2.6832 
278 6 -0.45998 6.11888 3.75907 