ITEM: TIMESTEP
0
ITEM: NUMBER OF ATOMS
656
ITEM: BOX BOUNDS pp pp pp
-3.2000000000000002e+00 2.2400000000000002e+01
-4.3779677730546460e+01 4.3779677730546460e+01
-3.2000000000000002e+00 2.2400000000000002e+01
ITEM: ATOMS id type x y z 
1 10 0 0 0 
2 4 3.2 0 0 
3 4 0 -3.2 0 
4 4 0 0 3.2 
5 4 0 3.2 0 
6 9 3.2 -3.2 3.2 
7 5 3.2 -8.15352 3.2 
8 3 4.16719 -3.41384 2.95133 
9 3 3.0963 -3.40171 4.19573 
10 3 3.03992 -2.20255 3.05241 
11 8 2.24938 -4.07172 2.38909 
12 2 1.24356 -3.78957 2.697 
13 2 2.39717 -3.79102 1.34721 
14 6 1.93048 -6.1788 3.70154 
15 5 2.25415 -7.49774 3.97496 
16 7 2.55597 -5.51228 2.6514 
17 6 3.49826 -6.17689 1.87116 
18 5 3.81983 -7.49573 2.14719 
19 1 1.17241 -5.67714 4.29544 
20 1 1.75963 -8.01788 4.78543 
21 1 3.96818 -5.67383 1.03141 
22 1 3.44715 -9.18645 3.41083 
23 1 4.5455 -8.01403 1.53342 
24 9 3.2 3.2 3.2 
25 5 3.2 8.15352 3.2 
26 3 2.85813 3.41384 4.13831 
27 3 4.2011 3.40171 3.19397 
28 3 3.06874 2.20255 3.02628 
29 8 2.48574 4.07172 2.17478 
30 2 2.89033 3.78957 1.20381 
31 2 1.4344 3.79102 2.22019 
32 6 3.82304 6.1788 1.98549 
33 5 4.06357 7.49774 2.3343 
34 7 2.71687 5.51228 2.50551 
35 6 1.8484 6.17689 3.36715 
36 5 2.09173 7.49573 3.71413 
37 1 4.48809 5.67714 1.28899 
38 1 4.91843 8.01788 1.92123 
39 1 0.966789 5.67383 3.75288 
40 1 3.3857 9.18645 3.46655 
41 1 1.41006 8.01403 4.37643 
42 10 0 0 6.4 
43 4 3.2 0 6.4 
44 4 0 -3.2 6.4 
45 4 0 0 9.6 
46 4 0 3.2 6.4 
47 9 3.2 -3.2 9.6 
48 5 3.2 -8.15352 9.6 
49 3 4.16719 -3.41384 9.35133 
50 3 3.0963 -3.40171 10.5957 
51 3 3.03992 -2.20255 9.45241 
52 8 2.24938 -4.07172 8.78909 
53 2 1.24356 -3.78957 9.097 
54 2 2.39717 -3.79102 7.74721 
55 6 1.93048 -6.1788 10.1015 
56 5 2.25415 -7.49774 10.375 
57 7 2.55597 -5.51228 9.0514 
58 6 3.49826 -6.17689 8.27116 
59 5 3.81983 -7.49573 8.54719 
60 1 1.17241 -5.67714 10.6954 
61 1 1.75963 -8.01788 11.1854 
62 1 3.96818 -5.67383 7.43141 
63 1 3.44715 -9.18645 9.81083 
64 1 4.5455 -8.01403 7.93342 
65 9 3.2 3.2 9.6 
66 5 3.2 8.15352 9.6 
67 3 2.85813 3.41384 10.5383 
68 3 4.2011 3.40171 9.59397 
69 3 3.06874 2.20255 9.42628 
70 8 2.48574 4.07172 8.57478 
71 2 2.89033 3.78957 7.60381 
72 2 1.4344 3.79102 8.62019 
73 6 3.82304 6.1788 8.38549 
74 5 4.06357 7.49774 8.7343 
75 7 2.71687 5.51228 8.90551 
76 6 1.8484 6.17689 9.76715 
77 5 2.09173 7.49573 10.1141 
78 1 4.48809 5.67714 7.68899 
79 1 4.91843 8.01788 8.32123 
80 1 0.966789 5.67383 10.1529 
81 1 3.3857 9.18645 9.86655 
82 1 1.41006 8.01403 10.7764 
83 10 0 0 12.8 
84 4 3.2 0 12.8 
85 4 0 -3.2 12.8 
86 4 0 0 16 
87 4 0 3.2 12.8 
88 9 3.2 -3.2 16 
89 5 3.2 -8.15352 16 
90 3 4.16719 -3.41384 15.7513 
91 3 3.0963 -3.40171 16.9957 
92 3 3.03992 -2.20255 15.8524 
93 8 2.24938 -4.07172 15.1891 
94 2 1.24356 -3.78957 15.497 
95 2 2.39717 -3.79102 14.1472 
96 6 1.93048 -6.1788 16.5015 
97 5 2.25415 -7.49774 16.775 
98 7 2.55597 -5.51228 15.4514 
99 6 3.49826 -6.17689 14.6712 
100 5 3.81983 -7.49573 14.9472 
101 1 1.17241 -5.67714 17.0954 
102 1 1.75963 -8.01788 17.5854 
103 1 3.96818 -5.67383 13.8314 
104 1 3.44715 -9.18645 16.2108 
105 1 4.5455 -8.01403 14.3334 
106 9 3.2 3.2 16 
107 5 3.2 8.15352 16 
108 3 2.85813 3.41384 16.9383 
109 3 4.2011 3.40171 15.994 
110 3 3.06874 2.20255 15.8263 
111 8 2.48574 4.07172 14.9748 
112 2 2.89033 3.78957 14.0038 
113 2 1.4344 3.79102 15.0202 
114 6 3.82304 6.1788 14.7855 
115 5 4.06357 7.49774 15.1343 
116 7 2.71687 5.51228 15.3055 
117 6 1.8484 6.17689 16.1672 
118 5 2.09173 7.49573 16.5141 
119 1 4.48809 5.67714 14.089 
120 1 4.91843 8.01788 14.7212 
121 1 0.966789 5.67383 16.5529 
122 1 3.3857 9.18645 16.2665 
123 1 1.41006 8.01403 17.1764 
124 10 0 0 19.2 
125 4 3.2 0 19.2 
126 4 0 -3.2 19.2 
127 4 0 0 -3.2 
128 4 0 3.2 19.2 
129 9 3.2 -3.2 22.4 
130 5 3.2 -8.15352 22.4 
131 3 4.16719 -3.41384 22.1513 
132 3 3.0963 -3.40171 -2.20427 
133 3 3.03992 -2.20255 22.2524 
134 8 2.24938 -4.07172 21.5891 
135 2 1.24356 -3.78957 21.897 
136 2 2.39717 -3.79102 20.5472 
137 6 1.93048 -6.1788 -2.69846 
138 5 2.25415 -7.49774 -2.42504 
139 7 2.55597 -5.51228 21.8514 
140 6 3.49826 -6.17689 21.0712 
141 5 3.81983 -7.49573 21.3472 
142 1 1.17241 -5.67714 -2.10456 
143 1 1.75963 -8.01788 -1.61457 
144 1 3.96818 -5.67383 20.2314 
145 1 3.44715 -9.18645 -2.98917 
146 1 4.5455 -8.01403 20.7334 
147 9 3.2 3.2 -3.2 
148 5 3.2 8.15352 -3.2 
149 3 2.85813 3.41384 -2.26169 
150 3 4.2011 3.40171 22.394 
151 3 3.06874 2.20255 22.2263 
152 8 2.48574 4.07172 21.3748 
153 2 2.89033 3.78957 20.4038 
154 2 1.4344 3.79102 21.4202 
155 6 3.82304 6.1788 21.1855 
156 5 4.06357 7.49774 21.5343 
157 7 2.71687 5.51228 21.7055 
158 6 1.8484 6.17689 -3.03285 
159 5 2.09173 7.49573 -2.68587 
160 1 4.48809 5.67714 20.489 
161 1 4.91843 8.01788 21.1212 
162 1 0.966789 5.67383 -2.64712 
163 1 3.3857 9.18645 -2.93345 
164 1 1.41006 8.01403 -2.02357 
165 10 6.4 0 0 
166 4 9.6 0 0 
167 4 6.4 -3.2 0 
168 4 6.4 0 3.2 
169 4 6.4 3.2 0 
170 9 9.6 -3.2 3.2 
171 5 9.6 -8.15352 3.2 
172 3 10.5672 -3.41384 2.95133 
173 3 9.4963 -3.40171 4.19573 
174 3 9.43992 -2.20255 3.05241 
175 8 8.64938 -4.07172 2.38909 
176 2 7.64356 -3.78957 2.697 
177 2 8.79717 -3.79102 1.34721 
178 6 8.33048 -6.1788 3.70154 
179 5 8.65415 -7.49774 3.97496 
180 7 8.95597 -5.51228 2.6514 
181 6 9.89826 -6.17689 1.87116 
182 5 10.2198 -7.49573 2.14719 
183 1 7.57241 -5.67714 4.29544 
184 1 8.15963 -8.01788 4.78543 
185 1 10.3682 -5.67383 1.03141 
186 1 9.84715 -9.18645 3.41083 
187 1 10.9455 -8.01403 1.53342 
188 9 9.6 3.2 3.2 
189 5 9.6 8.15352 3.2 
190 3 9.25813 3.41384 4.13831 
191 3 10.6011 3.40171 3.19397 
192 3 9.46874 2.20255 3.02628 
193 8 8.88574 4.07172 2.17478 
194 2 9.29033 3.78957 1.20381 
195 2 7.8344 3.79102 2.22019 
196 6 10.223 6.1788 1.98549 
197 5 10.4636 7.49774 2.3343 
198 7 9.11687 5.51228 2.50551 
199 6 8.2484 6.17689 3.36715 
200 5 8.49173 7.49573 3.71413 
201 1 10.8881 5.67714 1.28899 
202 1 11.3184 8.01788 1.92123 
203 1 7.36679 5.67383 3.75288 
204 1 9.7857 9.18645 3.46655 
205 1 7.81006 8.01403 4.37643 
206 10 6.4 0 6.4 
207 4 9.6 0 6.4 
208 4 6.4 -3.2 6.4 
209 4 6.4 0 9.6 
210 4 6.4 3.2 6.4 
211 9 9.6 -3.2 9.6 
212 5 9.6 -8.15352 9.6 
213 3 10.5672 -3.41384 9.35133 
214 3 9.4963 -3.40171 10.5957 
215 3 9.43992 -2.20255 9.45241 
216 8 8.64938 -4.07172 8.78909 
217 2 7.64356 -3.78957 9.097 
218 2 8.79717 -3.79102 7.74721 
219 6 8.33048 -6.1788 10.1015 
220 5 8.65415 -7.49774 10.375 
221 7 8.95597 -5.51228 9.0514 
222 6 9.89826 -6.17689 8.27116 
223 5 10.2198 -7.49573 8.54719 
224 1 7.57241 -5.67714 10.6954 
225 1 8.15963 -8.01788 11.1854 
226 1 10.3682 -5.67383 7.43141 
227 1 9.84715 -9.18645 9.81083 
228 1 10.9455 -8.01403 7.93342 
229 9 9.6 3.2 9.6 
230 5 9.6 8.15352 9.6 
231 3 9.25813 3.41384 10.5383 
232 3 10.6011 3.40171 9.59397 
233 3 9.46874 2.20255 9.42628 
234 8 8.88574 4.07172 8.57478 
235 2 9.29033 3.78957 7.60381 
236 2 7.8344 3.79102 8.62019 
237 6 10.223 6.1788 8.38549 
238 5 10.4636 7.49774 8.7343 
239 7 9.11687 5.51228 8.90551 
240 6 8.2484 6.17689 9.76715 
241 5 8.49173 7.49573 10.1141 
242 1 10.8881 5.67714 7.68899 
243 1 11.3184 8.01788 8.32123 
244 1 7.36679 5.67383 10.1529 
245 1 9.7857 9.18645 9.86655 
246 1 7.81006 8.01403 10.7764 
247 10 6.4 0 12.8 
248 4 9.6 0 12.8 
249 4 6.4 -3.2 12.8 
250 4 6.4 0 16 
251 4 6.4 3.2 12.8 
252 9 9.6 -3.2 16 
253 5 9.6 -8.15352 16 
254 3 10.5672 -3.41384 15.7513 
255 3 9.4963 -3.40171 16.9957 
256 3 9.43992 -2.20255 15.8524 
257 8 8.64938 -4.07172 15.1891 
258 2 7.64356 -3.78957 15.497 
259 2 8.79717 -3.79102 14.1472 
260 6 8.33048 -6.1788 16.5015 
261 5 8.65415 -7.49774 16.775 
262 7 8.95597 -5.51228 15.4514 
263 6 9.89826 -6.17689 14.6712 
264 5 10.2198 -7.49573 14.9472 
265 1 7.57241 -5.67714 17.0954 
266 1 8.15963 -8.01788 17.5854 
267 1 10.3682 -5.67383 13.8314 
268 1 9.84715 -9.18645 16.2108 
269 1 10.9455 -8.01403 14.3334 
270 9 9.6 3.2 16 
271 5 9.6 8.15352 16 
272 3 9.25813 3.41384 16.9383 
273 3 10.6011 3.40171 15.994 
274 3 9.46874 2.20255 15.8263 
275 8 8.88574 4.07172 14.9748 
276 2 9.29033 3.78957 14.0038 
277 2 7.8344 3.79102 15.0202 
278 6 10.223 6.1788 14.7855 
279 5 10.4636 7.49774 15.1343 
280 7 9.11687 5.51228 15.3055 
281 6 8.2484 6.17689 16.1672 
282 5 8.49173 7.49573 16.5141 
283 1 10.8881 5.67714 14.089 
284 1 11.3184 8.01788 14.7212 
285 1 7.36679 5.67383 16.5529 
286 1 9.7857 9.18645 16.2665 
287 1 7.81006 8.01403 17.1764 
288 10 6.4 0 19.2 
289 4 9.6 0 19.2 
290 4 6.4 -3.2 19.2 
291 4 6.4 0 -3.2 
292 4 6.4 3.2 19.2 
293 9 9.6 -3.2 22.4 
294 5 9.6 -8.15352 22.4 
295 3 10.5672 -3.41384 22.1513 
296 3 9.4963 -3.40171 -2.20427 
297 3 9.43992 -2.20255 22.2524 
298 8 8.64938 -4.07172 21.5891 
299 2 7.64356 -3.78957 21.897 
300 2 8.79717 -3.79102 20.5472 
301 6 8.33048 -6.1788 -2.69846 
302 5 8.65415 -7.49774 -2.42504 
303 7 8.95597 -5.51228 21.8514 
304 6 9.89826 -6.17689 21.0712 
305 5 10.2198 -7.49573 21.3472 
306 1 7.57241 -5.67714 -2.10456 
307 1 8.15963 -8.01788 -1.61457 
308 1 10.3682 -5.67383 20.2314 
309 1 9.84715 -9.18645 -2.98917 
310 1 10.9455 -8.01403 20.7334 
311 9 9.6 3.2 -3.2 
312 5 9.6 8.15352 -3.2 
313 3 9.25813 3.41384 -2.26169 
314 3 10.6011 3.40171 22.394 
315 3 9.46874 2.20255 22.2263 
316 8 8.88574 4.07172 21.3748 
317 2 9.29033 3.78957 20.4038 
318 2 7.8344 3.79102 21.4202 
319 6 10.223 6.1788 21.1855 
320 5 10.4636 7.49774 21.5343 
321 7 9.11687 5.51228 21.7055 
322 6 8.2484 6.17689 -3.03285 
323 5 8.49173 7.49573 -2.68587 
324 1 10.8881 5.67714 20.489 
325 1 11.3184 8.01788 21.1212 
326 1 7.36679 5.67383 -2.64712 
327 1 9.7857 9.18645 -2.93345 
328 1 7.81006 8.01403 -2.02357 
329 10 12.8 0 0 
330 4 16 0 0 
331 4 12.8 -3.2 0 
332 4 12.8 0 3.2 
333 4 12.8 3.2 0 
334 9 16 -3.2 3.2 
335 5 16 -8.15352 3.2 
336 3 16.9672 -3.41384 2.95133 
337 3 15.8963 -3.40171 4.19573 
338 3 15.8399 -2.20255 3.05241 
339 8 15.0494 -4.07172 2.38909 
340 2 14.0436 -3.78957 2.697 
341 2 15.1972 -3.79102 1.34721 
342 6 14.7305 -6.1788 3.70154 
343 5 15.0542 -7.49774 3.97496 
344 7 15.356 -5.51228 2.6514 
345 6 16.2983 -6.17689 1.87116 
346 5 16.6198 -7.49573 2.14719 
347 1 13.9724 -5.67714 4.29544 
348 1 14.5596 -8.01788 4.78543 
349 1 16.7682 -5.67383 1.03141 
350 1 16.2472 -9.18645 3.41083 
351 1 17.3455 -8.01403 1.53342 
352 9 16 3.2 3.2 
353 5 16 8.15352 3.2 
354 3 15.6581 3.41384 4.13831 
355 3 17.0011 3.40171 3.19397 
356 3 15.8687 2.20255 3.02628 
357 8 15.2857 4.07172 2.17478 
358 2 15.6903 3.78957 1.20381 
359 2 14.2344 3.79102 2.22019 
360 6 16.623 6.1788 1.98549 
361 5 16.8636 7.49774 2.3343 
362 7 15.5169 5.51228 2.50551 
363 6 14.6484 6.17689 3.36715 
364 5 14.8917 7.49573 3.71413 
365 1 17.2881 5.67714 1.28899 
366 1 17.7184 8.01788 1.92123 
367 1 13.7668 5.67383 3.75288 
368 1 16.1857 9.18645 3.46655 
369 1 14.2101 8.01403 4.37643 
370 10 12.8 0 6.4 
371 4 16 0 6.4 
372 4 12.8 -3.2 6.4 
373 4 12.8 0 9.6 
374 4 12.8 3.2 6.4 
375 9 16 -3.2 9.6 
376 5 16 -8.15352 9.6 
377 3 16.9672 -3.41384 9.35133 
378 3 15.8963 -3.40171 10.5957 
379 3 15.8399 -2.20255 9.45241 
380 8 15.0494 -4.07172 8.78909 
381 2 14.0436 -3.78957 9.097 
382 2 15.1972 -3.79102 7.74721 
383 6 14.7305 -6.1788 10.1015 
384 5 15.0542 -7.49774 10.375 
385 7 15.356 -5.51228 9.0514 
386 6 16.2983 -6.17689 8.27116 
387 5 16.6198 -7.49573 8.54719 
388 1 13.9724 -5.67714 10.6954 
389 1 14.5596 -8.01788 11.1854 
390 1 16.7682 -5.67383 7.43141 
391 1 16.2472 -9.18645 9.81083 
392 1 17.3455 -8.01403 7.93342 
393 9 16 3.2 9.6 
394 5 16 8.15352 9.6 
395 3 15.6581 3.41384 10.5383 
396 3 17.0011 3.40171 9.59397 
397 3 15.8687 2.20255 9.42628 
398 8 15.2857 4.07172 8.57478 
399 2 15.6903 3.78957 7.60381 
400 2 14.2344 3.79102 8.62019 
401 6 16.623 6.1788 8.38549 
402 5 16.8636 7.49774 8.7343 
403 7 15.5169 5.51228 8.90551 
404 6 14.6484 6.17689 9.76715 
405 5 14.8917 7.49573 10.1141 
406 1 17.2881 5.67714 7.68899 
407 1 17.7184 8.01788 8.32123 
408 1 13.7668 5.67383 10.1529 
409 1 16.1857 9.18645 9.86655 
410 1 14.2101 8.01403 10.7764 
411 10 12.8 0 12.8 
412 4 16 0 12.8 
413 4 12.8 -3.2 12.8 
414 4 12.8 0 16 
415 4 12.8 3.2 12.8 
416 9 16 -3.2 16 
417 5 16 -8.15352 16 
418 3 16.9672 -3.41384 15.7513 
419 3 15.8963 -3.40171 16.9957 
420 3 15.8399 -2.20255 15.8524 
421 8 15.0494 -4.07172 15.1891 
422 2 14.0436 -3.78957 15.497 
423 2 15.1972 -3.79102 14.1472 
424 6 14.7305 -6.1788 16.5015 
425 5 15.0542 -7.49774 16.775 
426 7 15.356 -5.51228 15.4514 
427 6 16.2983 -6.17689 14.6712 
428 5 16.6198 -7.49573 14.9472 
429 1 13.9724 -5.67714 17.0954 
430 1 14.5596 -8.01788 17.5854 
431 1 16.7682 -5.67383 13.8314 
432 1 16.2472 -9.18645 16.2108 
433 1 17.3455 -8.01403 14.3334 
434 9 16 3.2 16 
435 5 16 8.15352 16 
436 3 15.6581 3.41384 16.9383 
437 3 17.0011 3.40171 15.994 
438 3 15.8687 2.20255 15.8263 
439 8 15.2857 4.07172 14.9748 
440 2 15.6903 3.78957 14.0038 
441 2 14.2344 3.79102 15.0202 
442 6 16.623 6.1788 14.7855 
443 5 16.8636 7.49774 15.1343 
444 7 15.5169 5.51228 15.3055 
445 6 14.6484 6.17689 16.1672 
446 5 14.8917 7.49573 16.5141 
447 1 17.2881 5.67714 14.089 
448 1 17.7184 8.01788 14.7212 
449 1 13.7668 5.67383 16.5529 
450 1 16.1857 9.18645 16.2665 
451 1 14.2101 8.01403 17.1764 
452 10 12.8 0 19.2 
453 4 16 0 19.2 
454 4 12.8 -3.2 19.2 
455 4 12.8 0 -3.2 
456 4 12.8 3.2 19.2 
457 9 16 -3.2 22.4 
458 5 16 -8.15352 22.4 
459 3 16.9672 -3.41384 22.1513 
460 3 15.8963 -3.40171 -2.20427 
461 3 15.8399 -2.20255 22.2524 
462 8 15.0494 -4.07172 21.5891 
463 2 14.0436 -3.78957 21.897 
464 2 15.1972 -3.79102 20.5472 
465 6 14.7305 -6.1788 -2.69846 
466 5 15.0542 -7.49774 -2.42504 
467 7 15.356 -5.51228 21.8514 
468 6 16.2983 -6.17689 21.0712 
469 5 16.6198 -7.49573 21.3472 
470 1 13.9724 -5.67714 -2.10456 
471 1 14.5596 -8.01788 -1.61457 
472 1 16.7682 -5.67383 20.2314 
473 1 16.2472 -9.18645 -2.98917 
474 1 17.3455 -8.01403 20.7334 
475 9 16 3.2 -3.2 
476 5 16 8.15352 -3.2 
477 3 15.6581 3.41384 -2.26169 
478 3 17.0011 3.40171 22.394 
479 3 15.8687 2.20255 22.2263 
480 8 15.2857 4.07172 21.3748 
481 2 15.6903 3.78957 20.4038 
482 2 14.2344 3.79102 21.4202 
483 6 16.623 6.1788 21.1855 
484 5 16.8636 7.49774 21.5343 
485 7 15.5169 5.51228 21.7055 
486 6 14.6484 6.17689 -3.03285 
487 5 14.8917 7.49573 -2.68587 
488 1 17.2881 5.67714 20.489 
489 1 17.7184 8.01788 21.1212 
490 1 13.7668 5.67383 -2.64712 
491 1 16.1857 9.18645 -2.93345 
492 1 14.2101 8.01403 -2.02357 
493 10 19.2 0 0 
494 4 -3.2 0 0 
495 4 19.2 -3.2 0 
496 4 19.2 0 3.2 
497 4 19.2 3.2 0 
498 9 22.4 -3.2 3.2 
499 5 -3.2 -8.15352 3.2 
500 3 -2.23281 -3.41384 2.95133 
501 3 22.2963 -3.40171 4.19573 
502 3 22.2399 -2.20255 3.05241 
503 8 21.4494 -4.07172 2.38909 
504 2 20.4436 -3.78957 2.697 
505 2 21.5972 -3.79102 1.34721 
506 6 21.1305 -6.1788 3.70154 
507 5 21.4542 -7.49774 3.97496 
508 7 21.756 -5.51228 2.6514 
509 6 -2.90174 -6.17689 1.87116 
510 5 -2.58017 -7.49573 2.14719 
511 1 20.3724 -5.67714 4.29544 
512 1 20.9596 -8.01788 4.78543 
513 1 -2.43182 -5.67383 1.03141 
514 1 -2.95285 -9.18645 3.41083 
515 1 -1.8545 -8.01403 1.53342 
516 9 -3.2 3.2 3.2 
517 5 22.4 8.15352 3.2 
518 3 22.0581 3.41384 4.13831 
519 3 -2.1989 3.40171 3.19397 
520 3 22.2687 2.20255 3.02628 
521 8 21.6857 4.07172 2.17478 
522 2 22.0903 3.78957 1.20381 
523 2 20.6344 3.79102 2.22019 
524 6 -2.57696 6.1788 1.98549 
525 5 -2.33643 7.49774 2.3343 
526 7 21.9169 5.51228 2.50551 
527 6 21.0484 6.17689 3.36715 
528 5 21.2917 7.49573 3.71413 
529 1 -1.91191 5.67714 1.28899 
530 1 -1.48157 8.01788 1.92123 
531 1 20.1668 5.67383 3.75288 
532 1 -3.0143 9.18645 3.46655 
533 1 20.6101 8.01403 4.37643 
534 10 19.2 0 6.4 
535 4 -3.2 0 6.4 
536 4 19.2 -3.2 6.4 
537 4 19.2 0 9.6 
538 4 19.2 3.2 6.4 
539 9 22.4 -3.2 9.6 
540 5 -3.2 -8.15352 9.6 
541 3 -2.23281 -3.41384 9.35133 
542 3 22.2963 -3.40171 10.5957 
543 3 22.2399 -2.20255 9.45241 
544 8 21.4494 -4.07172 8.78909 
545 2 20.4436 -3.78957 9.097 
546 2 21.5972 -3.79102 7.74721 
547 6 21.1305 -6.1788 10.1015 
548 5 21.4542 -7.49774 10.375 
549 7 21.756 -5.51228 9.0514 
550 6 -2.90174 -6.17689 8.27116 
551 5 -2.58017 -7.49573 8.54719 
552 1 20.3724 -5.67714 10.6954 
553 1 20.9596 -8.01788 11.1854 
554 1 -2.43182 -5.67383 7.43141 
555 1 -2.95285 -9.18645 9.81083 
556 1 -1.8545 -8.01403 7.93342 
557 9 -3.2 3.2 9.6 
558 5 22.4 8.15352 9.6 
559 3 22.0581 3.41384 10.5383 
560 3 -2.1989 3.40171 9.59397 
561 3 22.2687 2.20255 9.42628 
562 8 21.6857 4.07172 8.57478 
563 2 22.0903 3.78957 7.60381 
564 2 20.6344 3.79102 8.62019 
565 6 -2.57696 6.1788 8.38549 
566 5 -2.33643 7.49774 8.7343 
567 7 21.9169 5.51228 8.90551 
568 6 21.0484 6.17689 9.76715 
569 5 21.2917 7.49573 10.1141 
570 1 -1.91191 5.67714 7.68899 
571 1 -1.48157 8.01788 8.32123 
572 1 20.1668 5.67383 10.1529 
573 1 -3.0143 9.18645 9.86655 
574 1 20.6101 8.01403 10.7764 
575 10 19.2 0 12.8 
576 4 -3.2 0 12.8 
577 4 19.2 -3.2 12.8 
578 4 19.2 0 16 
579 4 19.2 3.2 12.8 
580 9 22.4 -3.2 16 
581 5 22.4 -8.15352 16 
582 3 -2.23281 -3.41384 15.7513 
583 3 22.2963 -3.40171 16.9957 
584 3 22.2399 -2.20255 15.8524 
585 8 21.4494 -4.07172 15.1891 
586 2 20.4436 -3.78957 15.497 
587 2 21.5972 -3.79102 14.1472 
588 6 21.1305 -6.1788 16.5015 
589 5 21.4542 -7.49774 16.775 
590 7 21.756 -5.51228 15.4514 
591 6 -2.90174 -6.17689 14.6712 
592 5 -2.58017 -7.49573 14.9472 
593 1 20.3724 -5.67714 17.0954 
594 1 20.9596 -8.01788 17.5854 
595 1 -2.43182 -5.67383 13.8314 
596 1 -2.95285 -9.18645 16.2108 
597 1 -1.8545 -8.01403 14.3334 
598 9 -3.2 3.2 16 
599 5 22.4 8.15352 16 
600 3 22.0581 3.41384 16.9383 
601 3 -2.1989 3.40171 15.994 
602 3 22.2687 2.20255 15.8263 
603 8 21.6857 4.07172 14.9748 
604 2 22.0903 3.78957 14.0038 
605 2 20.6344 3.79102 15.0202 
606 6 -2.57696 6.1788 14.7855 
607 5 -2.33643 7.49774 15.1343 
608 7 21.9169 5.51228 15.3055 
609 6 21.0484 6.17689 16.1672 
610 5 21.2917 7.49573 16.5141 
611 1 -1.91191 5.67714 14.089 
612 1 -1.48157 8.01788 14.7212 
613 1 20.1668 5.67383 16.5529 
614 1 -3.0143 9.18645 16.2665 
615 1 20.6101 8.01403 17.1764 
616 10 19.2 0 19.2 
617 4 -3.2 0 19.2 
618 4 19.2 -3.2 19.2 
619 4 19.2 0 -3.2 
620 4 19.2 3.2 19.2 
621 9 22.4 -3.2 22.4 
622 5 -3.2 -8.15352 22.4 
623 3 -2.23281 -3.41384 22.1513 
624 3 22.2963 -3.40171 -2.20427 
625 3 22.2399 -2.20255 22.2524 
626 8 21.4494 -4.07172 21.5891 
627 2 20.4436 -3.78957 21.897 
628 2 21.5972 -3.79102 20.5472 
629 6 21.1305 -6.1788 -2.69846 
630 5 21.4542 -7.49774 -2.42504 
631 7 21.756 -5.51228 21.8514 
632 6 -2.90174 -6.17689 21.0712 
633 5 -2.58017 -7.49573 21.3472 
634 1 20.3724 -5.67714 -2.10456 
635 1 20.9596 -8.01788 -1.61457 
636 1 -2.43182 -5.67383 20.2314 
637 1 -2.95285 -9.18645 -2.98917 
638 1 -1.8545 -8.01403 20.7334 
639 9 -3.2 3.2 -3.2 
640 5 22.4 8.15352 -3.2 
641 3 22.0581 3.41384 -2.26169 
642 3 -2.1989 3.40171 22.394 
643 3 22.2687 2.20255 22.2263 
644 8 21.6857 4.07172 21.3748 
645 2 22.0903 3.78957 20.4038 
646 2 20.6344 3.79102 21.4202 
647 6 -2.57696 6.1788 21.1855 
648 5 -2.33643 7.49774 21.5343 
649 7 21.9169 5.51228 21.7055 
650 6 21.0484 6.17689 -3.03285 
651 5 21.2917 7.49573 -2.68587 
652 1 -1.91191 5.67714 20.489 
653 1 -1.48157 8.01788 21.1212 
654 1 20.1668 5.67383 -2.64712 
655 1 -3.0143 9.18645 -2.93345 
656 1 20.6101 8.01403 -2.02357 
ITEM: TIMESTEP
1000
ITEM: NUMBER OF ATOMS
656
ITEM: BOX BOUNDS pp pp pp
-3.2000000000000002e+00 2.2400000000000002e+01
-4.3779677730546460e+01 4.3779677730546460e+01
-3.2000000000000002e+00 2.2400000000000002e+01
ITEM: ATOMS id type x y z 
1 10 -1.04235 -0.0341392 -1.10316 
2 4 1.95931 -0.0450101 -0.952319 
3 4 -1.18138 -3.11577 -0.876427 
4 4 -1.15576 0.0630453 1.95513 
5 4 -1.27769 3.24896 -1.66666 
6 9 2.69556 -2.43344 1.94609 
7 5 2.87605 -7.39485 2.77745 
8 3 2.93438 -2.63403 0.959141 
9 3 3.55951 -2.56123 2.5068 
10 3 2.47224 -1.42392 1.9882 
11 8 1.55242 -3.3067 2.44984 
12 2 1.3053 -2.96467 3.45212 
13 2 0.659604 -3.13422 1.84629 
14 6 2.26573 -5.28172 3.77993 
15 5 2.75553 -6.58646 3.90891 
16 7 1.92225 -4.76977 2.52547 
17 6 2.02818 -5.58656 1.39129 
18 5 2.486 -6.91089 1.51753 
19 1 2.19928 -4.64025 4.65912 
20 1 3.07251 -6.93662 4.88753 
21 1 1.76982 -5.18312 0.415292 
22 1 3.26515 -8.40321 2.86963 
23 1 2.57432 -7.55072 0.645615 
24 9 2.04029 2.33083 2.2239 
25 5 3.21751 7.23656 2.67529 
26 3 1.4791 2.52034 3.07275 
27 3 3.02438 2.22016 2.53457 
28 3 1.72695 1.40829 1.87228 
29 8 1.86455 3.43248 1.16942 
30 2 2.39134 3.13228 0.255581 
31 2 0.798018 3.46992 0.93242 
32 6 3.71559 4.98678 1.89204 
33 5 4.1516 6.2104 2.4242 
34 7 2.35176 4.78582 1.61688 
35 6 1.43229 5.83211 1.78949 
36 5 1.86211 7.05401 2.32575 
37 1 4.42147 4.166 1.73699 
38 1 5.19951 6.32499 2.69452 
39 1 0.381682 5.65384 1.56373 
40 1 3.54571 8.1602 3.14336 
41 1 1.13999 7.84102 2.51703 
42 10 -1.03411 0.00644063 5.19301 
43 4 2.00913 -0.169842 5.06307 
44 4 -1.4749 -2.95772 5.21704 
45 4 -0.966007 0.317594 8.34779 
46 4 -0.985317 3.17966 4.58863 
47 9 1.89404 -2.39503 8.99873 
48 5 2.98527 -7.24083 9.29551 
49 3 2.53829 -2.53264 9.80303 
50 3 0.957647 -2.63014 9.335 
51 3 1.8724 -1.37843 8.80726 
52 8 2.26526 -3.24873 7.79824 
53 2 1.49441 -3.15346 7.02232 
54 2 3.18609 -2.81934 7.39528 
55 6 1.41441 -5.51995 8.59131 
56 5 1.66419 -6.79592 9.12585 
57 7 2.4859 -4.68715 8.22439 
58 6 3.79603 -5.12852 8.4154 
59 5 4.05253 -6.40697 8.93312 
60 1 0.390358 -5.15128 8.51562 
61 1 0.831458 -7.4233 9.42973 
62 1 4.62559 -4.44719 8.22276 
63 1 3.18779 -8.20223 9.75529 
64 1 5.08254 -6.69409 9.12874 
65 9 2.41743 2.52309 8.01936 
66 5 1.82045 6.97034 10.2765 
67 3 2.35743 2.40197 9.04752 
68 3 3.42466 2.65738 7.80735 
69 3 2.14002 1.62136 7.59459 
70 8 1.54144 3.6819 7.50696 
71 2 1.80429 3.88231 6.46105 
72 2 0.504115 3.33324 7.54375 
73 6 2.86287 5.54571 8.61584 
74 5 2.96301 6.58491 9.55406 
75 7 1.61636 4.94668 8.34021 
76 6 0.456509 5.41304 8.97327 
77 5 0.570989 6.38938 9.98046 
78 1 3.76301 5.13316 8.15916 
79 1 3.94251 6.9813 9.81239 
80 1 -0.503697 4.94143 8.7676 
81 1 1.90453 7.68996 11.085 
82 1 -0.310185 6.64835 10.5631 
83 10 -1.22569 0.311942 11.6759 
84 4 2.09961 0.0330427 11.6421 
85 4 -1.09391 -3.04191 11.2095 
86 4 -1.37007 0.268314 14.7373 
87 4 -1.64061 3.19245 11.3296 
88 9 2.81081 -2.44839 14.8525 
89 5 1.73496 -7.33841 14.2738 
90 3 3.50489 -2.87618 14.217 
91 3 3.1541 -2.57609 15.8164 
92 3 2.84153 -1.43613 14.6394 
93 8 1.41347 -3.03592 14.6652 
94 2 0.772567 -2.71008 15.4922 
95 2 1.00263 -2.59142 13.7512 
96 6 1.34074 -5.37779 15.6681 
97 5 1.4826 -6.77391 15.5296 
98 7 1.43903 -4.55531 14.5358 
99 6 1.67548 -5.13812 13.2813 
100 5 1.82277 -6.52798 13.1333 
101 1 1.19079 -4.93477 16.6511 
102 1 1.41856 -7.39682 16.4176 
103 1 1.79133 -4.49798 12.4048 
104 1 1.86946 -8.40912 14.1793 
105 1 2.03191 -6.94838 12.1538 
106 9 1.69589 2.44892 15.1823 
107 5 2.98689 7.38405 15.8147 
108 3 0.761066 2.69697 15.5579 
109 3 2.32837 2.39796 16.005 
110 3 1.61052 1.48591 14.8102 
111 8 2.22339 3.4461 14.1264 
112 2 3.17774 3.04291 13.7556 
113 2 1.52585 3.44265 13.277 
114 6 3.60267 5.58548 14.2983 
115 5 3.86873 6.84608 14.8616 
116 7 2.44183 4.86258 14.6558 
117 6 1.53808 5.43897 15.5629 
118 5 1.81799 6.68061 16.1562 
119 1 4.31401 5.13342 13.6113 
120 1 4.77771 7.37875 14.5951 
121 1 0.644418 4.89779 15.8645 
122 1 3.20123 8.33189 16.2992 
123 1 1.13112 7.07191 16.9033 
124 10 -1.09418 -0.257855 18.1412 
125 4 1.89229 -0.233902 17.9817 
126 4 -1.19775 -3.24845 18.3041 
127 4 -1.00051 -0.0789863 21.204 
128 4 -1.34041 3.1354 18.0158 
129 9 2.76063 -2.50735 20.9923 
130 5 2.65821 -7.56408 21.6976 
131 3 3.08793 -2.83857 20.0692 
132 3 3.59088 -2.54486 21.6104 
133 3 2.50431 -1.51076 20.8795 
134 8 1.63466 -3.34657 21.5889 
135 2 1.46043 -2.99388 -2.98702 
136 2 0.7133 -3.1529 21.0326 
137 6 2.02866 -5.50662 -2.78317 
138 5 2.39856 -6.86277 -2.71504 
139 7 1.97154 -4.82971 21.5885 
140 6 2.22044 -5.52752 20.3921 
141 5 2.55623 -6.89979 20.4537 
142 1 1.84072 -4.94473 -1.86994 
143 1 2.50189 -7.34476 -1.74832 
144 1 2.15658 -5.00521 19.4352 
145 1 2.95142 -8.60932 21.7405 
146 1 2.75546 -7.43862 19.5319 
147 9 2.34159 2.46266 21.5361 
148 5 2.37075 7.66933 21.8578 
149 3 2.26017 2.50901 -3.0306 
150 3 3.35323 2.55695 21.3218 
151 3 2.05951 1.50528 21.2634 
152 8 1.47277 3.52374 20.8337 
153 2 1.5972 3.37242 19.7544 
154 2 0.419997 3.29845 21.0424 
155 6 3.1184 5.41574 21.2938 
156 5 3.41456 6.75498 21.6091 
157 7 1.7836 4.98173 21.1754 
158 6 0.746493 5.91315 21.3648 
159 5 1.0401 7.24683 21.7244 
160 1 3.92968 4.70575 21.126 
161 1 4.45024 7.06979 21.7019 
162 1 -0.282947 5.56718 21.2903 
163 1 2.59771 8.69286 22.144 
164 1 0.227074 7.93997 21.9166 
165 10 5.29861 -0.277549 -1.25112 
166 4 8.34344 -0.597409 -1.26311 
167 4 4.9271 -3.29442 -1.19344 
168 4 5.41642 0.115776 1.90634 
169 4 5.39472 2.88513 -1.62049 
170 9 8.30374 -2.61218 2.96089 
171 5 11.0243 -6.72667 2.21777 
172 3 9.24685 -2.20045 2.83141 
173 3 8.29443 -2.97354 3.93196 
174 3 7.61663 -1.83761 2.95763 
175 8 7.95678 -3.69966 1.92957 
176 2 6.90971 -3.99345 2.06328 
177 2 8.02117 -3.24841 0.931915 
178 6 9.18816 -5.49879 3.25936 
179 5 10.2829 -6.38522 3.35987 
180 7 8.87358 -4.91512 2.01908 
181 6 9.54283 -5.34115 0.86518 
182 5 10.6357 -6.22026 0.964415 
183 1 8.69666 -5.14738 4.16689 
184 1 10.6201 -6.69919 4.34452 
185 1 9.33354 -4.85298 -0.0860939 
186 1 11.9343 -7.31266 2.3091 
187 1 11.2628 -6.37618 0.0884795 
188 9 8.84908 2.35706 1.88298 
189 5 9.20648 7.50414 1.37399 
190 3 9.83759 2.53528 2.14269 
191 3 8.8283 2.23612 0.856701 
192 3 8.60091 1.44001 2.29574 
193 8 7.92484 3.46912 2.36845 
194 2 6.90358 3.25574 2.03016 
195 2 7.9339 3.38459 3.46324 
196 6 8.34772 5.33651 0.64451 
197 5 8.74918 6.65581 0.34971 
198 7 8.35695 4.88098 1.97713 
199 6 8.75618 5.75613 2.99514 
200 5 9.20812 7.05205 2.7063 
201 1 8.04072 4.65943 -0.155223 
202 1 8.75016 6.99034 -0.683891 
203 1 8.75879 5.40401 4.02675 
204 1 9.55873 8.50409 1.14354 
205 1 9.56227 7.69598 3.50811 
206 10 5.20811 0.0800269 5.29691 
207 4 8.26871 0.177753 5.36065 
208 4 5.38622 -3.28384 5.02952 
209 4 5.31713 0.0131551 8.31923 
210 4 5.05655 3.03464 5.13684 
211 9 9.18967 -2.07121 8.48068 
212 5 8.2907 -7.06274 9.55399 
213 3 9.90569 -2.47359 7.85713 
214 3 9.60462 -2.01383 9.42595 
215 3 9.02516 -1.10134 8.15773 
216 8 7.90235 -2.88647 8.46728 
217 2 7.24687 -2.45889 9.22799 
218 2 7.42768 -2.73848 7.49635 
219 6 8.40935 -4.69163 10.1043 
220 5 8.54062 -6.03754 10.4817 
221 7 8.06002 -4.35224 8.79491 
222 6 7.80821 -5.3745 7.86075 
223 5 7.89907 -6.72658 8.24069 
224 1 8.50515 -3.90143 10.8468 
225 1 8.80495 -6.26891 11.5105 
226 1 7.54063 -5.10384 6.84181 
227 1 8.35658 -8.10309 9.85886 
228 1 7.67419 -7.51241 7.52245 
229 9 8.55174 2.67982 9.03888 
230 5 9.17914 7.73838 8.00256 
231 3 8.32135 3.08481 9.96416 
232 3 9.57901 2.56221 9.01102 
233 3 8.11313 1.74277 9.0217 
234 8 8.04271 3.55139 7.88953 
235 2 8.41779 3.13205 6.94895 
236 2 6.95396 3.44864 7.86146 
237 6 9.77944 5.40129 7.91619 
238 5 10.1654 6.74465 7.92887 
239 7 8.43007 5.02265 7.99795 
240 6 7.44766 6.01768 8.09449 
241 5 7.82942 7.37573 8.09297 
242 1 10.5432 4.62822 7.84846 
243 1 11.2167 7.00822 7.85756 
244 1 6.39851 5.73075 8.14746 
245 1 9.47792 8.78135 7.98454 
246 1 7.05871 8.13773 8.15201 
247 10 5.40819 0.197408 11.5168 
248 4 8.25482 0.0606927 11.7006 
249 4 5.08743 -2.97716 11.7368 
250 4 5.32533 0.364229 14.6551 
251 4 5.39856 3.29986 10.9571 
252 9 9.20997 -2.29696 14.7274 
253 5 8.07651 -7.29618 15.573 
254 3 10.1703 -2.60266 14.4962 
255 3 9.16004 -2.23919 15.7626 
256 3 9.13413 -1.33355 14.3596 
257 8 8.12195 -3.20098 14.1452 
258 2 7.16217 -2.74428 14.4201 
259 2 8.19426 -3.15468 13.0525 
260 6 6.91437 -5.348 14.715 
261 5 6.87767 -6.67699 15.1751 
262 7 8.1277 -4.64874 14.6185 
263 6 9.32817 -5.29784 14.9647 
264 5 9.29581 -6.6055 15.4672 
265 1 5.98065 -4.83985 14.482 
266 1 5.92094 -7.18212 15.2916 
267 1 10.2652 -4.75045 14.894 
268 1 8.04552 -8.30442 15.9734 
269 1 10.2249 -7.0551 15.8025 
270 9 8.56805 2.42984 14.9902 
271 5 8.95544 7.31051 15.9663 
272 3 7.90715 2.3341 15.7823 
273 3 9.50624 2.59451 15.4022 
274 3 8.60172 1.49997 14.5363 
275 8 8.1715 3.53023 14.0064 
276 2 8.70586 3.36562 13.0674 
277 2 7.10572 3.39555 13.8037 
278 6 9.72626 5.45331 14.5737 
279 5 9.98808 6.65351 15.2618 
280 7 8.43014 4.91294 14.5647 
281 6 7.40127 5.55674 15.2715 
282 5 7.66679 6.75102 15.978 
283 1 10.5382 4.89832 14.1087 
284 1 10.9952 7.05308 15.2816 
285 1 6.42323 5.08246 15.338 
286 1 9.1719 8.21519 16.5268 
287 1 6.86317 7.20752 16.5504 
288 10 5.22864 -0.021261 17.8628 
289 4 8.43989 -0.0991304 17.8489 
290 4 5.1735 -3.18889 17.8487 
291 4 5.32817 -0.143099 21.1453 
292 4 4.67613 3.12828 17.8214 
293 9 8.97265 -2.33832 21.2545 
294 5 9.22176 -7.49749 21.7554 
295 3 9.77883 -2.23323 20.6107 
296 3 9.36201 -2.51336 22.1987 
297 3 8.48988 -1.42281 21.2988 
298 8 8.00928 -3.4431 20.8242 
299 2 7.02806 -3.25397 21.2832 
300 2 7.89395 -3.33401 19.7401 
301 6 8.48242 -5.2831 -3.10261 
302 5 8.84522 -6.61379 -2.8102 
303 7 8.46772 -4.84543 21.1635 
304 6 8.84088 -5.72358 20.1285 
305 5 9.23182 -7.04604 20.42 
306 1 8.19759 -4.59192 -2.30481 
307 1 8.8527 -6.9455 -1.7749 
308 1 8.85022 -5.35253 19.102 
309 1 9.5309 -8.51015 21.9995 
310 1 9.54338 -7.70966 19.618 
311 9 8.51803 2.30113 21.844 
312 5 9.52714 7.28952 21.5306 
313 3 8.19482 2.67544 -2.84328 
314 3 9.53481 2.13871 21.951 
315 3 8.06686 1.37529 21.756 
316 8 8.19907 3.24062 20.6883 
317 2 8.70246 2.86953 19.7847 
318 2 7.11669 3.19106 20.5039 
319 6 10.0087 4.94873 21.0715 
320 5 10.4522 6.25843 21.3201 
321 7 8.63975 4.66216 21.0033 
322 6 7.7107 5.68786 21.2565 
323 5 8.15473 7.00464 21.5063 
324 1 10.7262 4.14495 20.9178 
325 1 11.5135 6.47827 21.3197 
326 1 6.64646 5.4537 21.2407 
327 1 9.87987 8.29994 21.71 
328 1 7.42399 7.79124 21.6714 
329 10 11.6437 -0.257527 -1.06247 
330 4 14.9062 -0.0449121 -1.18218 
331 4 11.7883 -3.11066 -1.6775 
332 4 11.6122 -0.0557142 1.9975 
333 4 10.9884 2.7012 -1.11403 
334 9 15.3482 -2.43121 1.62025 
335 5 15.5987 -7.41875 2.83485 
336 3 15.6338 -2.64085 0.647723 
337 3 16.2047 -2.48018 2.20389 
338 3 15.06 -1.43723 1.61351 
339 8 14.2476 -3.36262 2.13704 
340 2 13.9078 -2.93591 3.09032 
341 2 13.3916 -3.31026 1.45281 
342 6 14.6953 -5.32331 3.65774 