ITEM: TIMESTEP
110000
ITEM: NUMBER OF ATOMS
656
ITEM: BOX BOUNDS pp pp pp
-2.8091036059225285e+00 2.2009103605922448e+01
-4.3779677730546460e+01 4.3779677730546460e+01
-2.7162329367920108e+00 2.1916232936792156e+01
ITEM: ATOMS id type x y z 
1 10 14.1447 0.981319 13.0542 
2 4 17.1883 0.763229 13.1304 
3 4 14.152 -2.22773 12.7679 
4 4 14.0401 0.781452 16.2872 
5 4 14.3959 3.81348 13.0859 
6 9 16.7386 -1.51362 16.5915 
7 5 16.2871 -6.56549 16.1696 
8 3 15.7574 -1.45841 16.2923 
9 3 17.135 -0.591829 16.4678 
10 3 16.9755 -1.59766 17.6461 
11 8 17.5847 -2.50237 15.7717 
12 2 17.4935 -2.26187 14.7125 
13 2 18.675 -2.41054 16.0557 
14 6 16.8275 -4.72323 14.783 
15 5 16.3802 -6.04964 14.9089 
16 7 17.1262 -3.95258 15.9068 
17 6 16.8087 -4.44528 17.225 
18 5 16.4688 -5.76819 17.3445 
19 1 17.1393 -4.25261 13.851 
20 1 16.2285 -6.6988 14.1205 
21 1 17.086 -3.85915 18.0644 
22 1 16.1246 -7.64181 16.2542 
23 1 16.3167 -6.20626 18.3529 
24 9 16.7219 3.23993 15.9596 
25 5 15.4959 8.16445 16.2312 
26 3 17.0558 2.30803 16.3502 
27 3 16.8181 3.20221 14.9079 
28 3 15.7283 3.37623 16.2852 
29 8 17.4897 4.34844 16.6481 
30 2 17.5353 4.15911 17.7509 
31 2 18.5471 4.30367 16.2904 
32 6 16.7102 6.24274 15.2247 
33 5 16.0799 7.48671 15.0676 
34 7 16.8261 5.72401 16.5286 
35 6 16.3977 6.38952 17.6878 
36 5 15.7516 7.63739 17.5408 
37 1 17.0467 5.63189 14.3919 
38 1 15.9496 7.82229 14.0334 
39 1 16.5903 5.99106 18.6464 
40 1 15.0627 9.20495 16.1297 
41 1 15.5426 8.17547 18.4598 
42 10 14.0936 0.952379 19.3694 
43 4 17.039 1.14719 19.1605 
44 4 14.2005 -2.25856 19.3925 
45 4 14.1661 1.05515 -2.16814 
46 4 13.8114 4.00926 19.2315 
47 9 16.6445 -1.48727 -2.46451 
48 5 16.9607 -6.62813 21.6425 
49 3 16.7648 -0.457115 -2.15221 
50 3 15.6624 -1.78182 -2.33662 
51 3 16.9141 -1.50453 21.1722 
52 8 17.5933 -2.45318 -1.67017 
53 2 18.6254 -2.10451 -1.77785 
54 2 17.4393 -2.25326 -0.628426 
55 6 16.007 -4.42201 -2.28217 
56 5 15.8629 -5.81173 -2.66909 
57 7 17.3178 -3.90096 -2.02217 
58 6 18.375 -4.70645 -2.42508 
59 5 18.235 -6.04184 21.7119 
60 1 15.0849 -3.89331 -2.06561 
61 1 14.8526 -6.07616 21.7483 
62 1 19.4009 -4.27075 -2.36928 
63 1 16.8205 -7.62007 21.2505 
64 1 19.0957 -6.54349 21.379 
65 9 17.402 3.70606 -1.74199 
66 5 16.2416 8.63467 -1.49719 
67 3 17.0945 3.71571 -0.737994 
68 3 18.4007 4.00802 -1.69221 
69 3 17.3846 2.70969 -2.02387 
70 8 16.6057 4.53774 -2.6659 
71 2 17.1138 4.39595 21.0042 
72 2 15.5948 4.10179 -2.58829 
73 6 17.703 6.75525 -1.98698 
74 5 17.5328 8.035 -1.48877 
75 7 16.5559 5.94527 -2.27948 
76 6 15.2668 6.5586 -2.28403 
77 5 15.1289 7.91159 -1.92027 
78 1 18.6339 6.27122 -2.00698 
79 1 18.4028 8.55142 -1.19011 
80 1 14.3043 6.00071 -2.4791 
81 1 16.1285 9.6881 -1.12859 
82 1 14.1552 8.20888 -1.79794 
83 10 14.1654 0.991411 0.740804 
84 4 17.2489 0.996871 0.671797 
85 4 13.9586 -2.12079 0.701656 
86 4 14.2279 0.938563 3.80355 
87 4 14.2966 4.13715 0.895505 
88 9 18.0899 -1.49127 4.32965 
89 5 18.0018 -6.27539 2.95763 
90 3 17.998 -0.456322 4.2362 
91 3 19.0237 -1.67348 3.97574 
92 3 18.03 -1.79466 5.31572 
93 8 17.0009 -2.18862 3.46615 
94 2 16.0014 -2.00595 3.82554 
95 2 16.9784 -1.7201 2.46718 
96 6 17.4353 -4.46739 4.43573 
97 5 17.8236 -5.78273 4.24962 
98 7 17.2222 -3.64401 3.31001 
99 6 17.5149 -4.10298 2.04742 
100 5 17.9148 -5.43786 1.80721 
101 1 17.0824 -4.08373 5.4099 
102 1 17.9429 -6.47568 5.09524 
103 1 17.5527 -3.43487 1.14651 
104 1 18.3368 -7.30841 2.78385 
105 1 18.2688 -5.78079 0.815685 
106 9 16.7751 3.48838 3.62185 
107 5 17.2824 8.5313 4.48049 
108 3 16.7849 2.46803 3.81737 
109 3 16.8562 3.59797 2.62677 
110 3 15.8057 3.72133 3.82576 
111 8 17.8571 4.25058 4.47724 
112 2 17.6996 3.8719 5.47985 
113 2 18.8618 4.01347 4.11558 
114 6 17.8302 6.43716 3.34009 
115 5 17.6918 7.81967 3.3185 
116 7 17.6111 5.70054 4.5088 
117 6 17.2931 6.36114 5.65769 
118 5 16.9951 7.80936 5.65768 
119 1 18.0446 6.01887 2.3539 
120 1 17.9419 8.37213 2.37328 
121 1 17.3093 5.77889 6.58611 
122 1 17.4501 9.57233 4.64966 
123 1 16.8155 8.28239 6.63561 
124 10 14.1063 0.882357 6.78273 
125 4 17.3454 0.849312 7.08121 
126 4 14.5691 -2.24741 7.18397 
127 4 14.1137 1.03666 9.92721 
128 4 13.9496 3.95635 6.49096 
129 9 16.8873 -1.60382 10.1495 
130 5 17.8971 -6.5516 11.2988 
131 3 16.9783 -0.627665 9.78151 
132 3 16.8562 -1.42342 11.1648 
133 3 15.8908 -1.95823 10.0688 
134 8 17.89 -2.5376 9.58013 
135 2 17.7376 -2.48945 8.48822 
136 2 18.8933 -2.15392 9.59127 
137 6 16.7084 -4.66506 10.3988 
138 5 16.6834 -5.97648 10.9085 
139 7 17.8744 -3.96854 10.1252 
140 6 19.0632 -4.53832 10.4478 
141 5 19.0905 -5.82681 10.9976 
142 1 15.7613 -4.1434 10.2979 
143 1 15.7815 -6.50408 11.2659 
144 1 19.8965 -3.8571 10.3187 
145 1 17.8494 -7.49633 11.8553 
146 1 20.0018 -6.12543 11.5354 
147 9 17.4729 3.18601 10.3904 
148 5 16.9708 8.33061 10.6796 
149 3 16.9729 3.18119 11.2484 
150 3 18.4648 3.53397 10.5412 
151 3 17.5216 2.24661 10.0304 
152 8 16.8681 4.17748 9.43844 
153 2 17.3246 3.99596 8.46974 
154 2 15.8689 3.89299 9.20654 
155 6 18.1551 6.33796 9.94829 
156 5 18.1654 7.70213 10.2652 
157 7 16.9578 5.61576 9.87857 
158 6 15.7204 6.24068 10.232 
159 5 15.768 7.56991 10.6741 
160 1 19.0956 5.8625 9.69789 
161 1 19.0586 8.27906 10.2634 
162 1 14.8113 5.62144 10.0461 
163 1 16.9843 9.41633 10.8606 
164 1 14.8392 8.10156 10.831 
165 10 20.3318 0.765234 13.1797 
166 4 -1.51526 1.05869 13.222 
167 4 20.6014 -2.31866 13.2868 
168 4 20.1926 1.12931 16.3136 
169 4 20.0706 4.20283 13.1662 
170 9 -1.41697 -1.41215 16.084 
171 5 -1.57876 -6.52005 16.4315 
172 3 -1.75725 -1.47152 15.1131 
173 3 -0.391101 -1.56405 16.0791 
174 3 -1.48484 -0.491214 16.4771 
175 8 -2.18664 -2.28089 17.0136 
176 2 -1.94183 -1.91406 17.9981 
177 2 21.544 -2.12979 16.7794 
178 6 21.8345 -4.66991 17.1451 
179 5 -2.80459 -6.08509 16.9529 
180 7 -1.90141 -3.78102 16.881 
181 6 -0.717225 -4.27879 16.4134 
182 5 -0.562567 -5.66322 16.1033 
183 1 20.8242 -4.27344 17.3208 
184 1 21.1558 -6.74141 17.186 
185 1 0.0238822 -3.6441 16.0457 
186 1 -1.52512 -7.56414 16.145 
187 1 0.362796 -5.93098 15.6203 
188 9 -1.82009 3.42585 15.6984 
189 5 -2.24088 8.35493 15.0403 
190 3 -2.67141 3.58318 15.2141 
191 3 -1.96187 2.42741 15.9913 
192 3 -1.11762 3.47951 14.9567 
193 8 -1.64833 4.45343 16.8393 
194 2 -2.13151 4.15876 17.6995 
195 2 -0.576118 4.22833 17.1699 
196 6 21.8007 6.57834 16.4637 
197 5 21.6524 7.82789 15.919 
198 7 -1.79665 5.89575 16.4497 
199 6 -0.794446 6.4553 15.6639 
200 5 -1.02564 7.64044 14.9204 
201 1 20.9149 6.1432 17.0173 
202 1 20.6104 8.16634 15.9819 
203 1 0.143233 5.93818 15.7358 
204 1 -2.5817 9.15376 14.4172 
205 1 -0.26892 7.95905 14.1994 
206 10 20.0538 1.17818 19.331 
207 4 -1.41296 1.08217 19.5813 
208 4 19.5065 -1.95756 19.3438 
209 4 20.2006 1.00959 -2.09345 
210 4 20.1154 4.22017 19.6939 
211 9 -1.21447 -1.41553 -1.65254 
212 5 -0.747808 -6.44002 -2.53988 
213 3 -1.31513 -0.407179 -1.97248 
214 3 -0.254728 -1.70279 -1.74656 
215 3 -1.48277 -1.50818 -0.715649 
216 8 -1.9509 -2.28891 -2.61623 
217 2 21.7528 -2.19771 -2.52567 
218 2 -1.56791 -1.93067 21.0367 
219 6 -1.65019 -4.4396 -1.37537 
220 5 -1.16506 -5.84059 -1.3062 
221 7 -1.67916 -3.75039 -2.59994 
222 6 -1.58983 -4.49688 20.8457 
223 5 -1.09785 -5.7928 20.8915 
224 1 -1.81144 -3.91162 -0.428911 
225 1 -1.08711 -6.45132 -0.384606 
226 1 -1.72366 -3.9611 19.9112 
227 1 -0.183744 -7.39335 -2.59737 
228 1 -0.83881 -6.32485 19.9495 
229 9 -2.10428 3.55385 -2.35472 
230 5 -2.32236 8.51772 -2.57335 
231 3 -1.76394 2.57683 -2.31568 
232 3 -2.09118 3.66969 21.3015 
233 3 21.6773 3.59257 -2.08804 
234 8 -1.15704 4.46924 -1.55447 
235 2 -1.16602 4.30576 -0.466229 
236 2 -0.141726 4.21223 -1.86661 
237 6 -1.61418 6.31663 21.3795 
238 5 -1.85577 7.6507 21.038 
239 7 -1.44882 5.91938 -1.88313 
240 6 -1.7457 6.79578 -0.846866 
241 5 -2.25041 8.15285 -1.21379 
242 1 -1.49308 5.49234 20.5858 
243 1 -1.88507 7.96296 20.0248 
244 1 -1.73916 6.37413 0.143581 
245 1 -2.65516 9.54926 21.7612 
246 1 -2.59272 8.82373 -0.46487 
247 10 20.4542 1.05753 0.838053 
248 4 -1.46983 1.10397 1.00922 
249 4 20.6728 -2.06151 1.10166 
250 4 20.4299 1.27355 4.05328 
251 4 20.37 4.23195 0.773936 
252 9 -1.45327 -1.38172 3.86535 
253 5 -0.745249 -6.64725 3.35879 
254 3 -1.45817 -0.555773 4.44167 
255 3 -2.44459 -1.53441 3.5634 
256 3 -1.02661 -1.19062 2.91668 
257 8 -0.694229 -2.46829 4.7028 
258 2 0.330736 -2.09364 4.78317 
259 2 -1.05045 -2.39736 5.74645 
260 6 0.525601 -4.6789 4.13713 
261 5 0.479084 -6.01738 3.73414 
262 7 -0.698938 -3.89118 4.19255 
263 6 -1.89833 -4.50398 3.76864 
264 5 -1.9178 -5.81855 3.33276 
265 1 1.48605 -4.24054 4.51596 
266 1 1.35232 -6.63805 3.89688 
267 1 21.9436 -3.99356 3.73599 
268 1 -0.66944 -7.66124 3.06492 
269 1 -2.77668 -6.25606 2.87877 
270 9 -1.18622 3.48211 4.63904 
271 5 -2.70269 8.28437 5.28336 
272 3 -0.624058 3.30911 5.5149 
273 3 -1.07413 2.60184 4.05964 
274 3 -2.1998 3.35384 4.87543 
275 8 -0.847536 4.65496 3.85368 
276 2 0.274663 4.71107 3.90032 
277 2 -1.1439 4.35946 2.78797 
278 6 -0.768198 7.09878 4.56507 
279 5 -1.30898 8.29797 5.03592 
280 7 -1.55054 5.91247 4.29283 
281 6 21.9286 5.98331 4.571 
282 5 21.2843 7.10392 5.10006 
283 1 0.29397 6.96998 4.45967 
284 1 -0.606267 9.11445 5.13109 
285 1 21.2925 5.14586 4.25886 
286 1 21.6467 9.17654 5.76319 
287 1 20.1591 7.13613 5.17629 
288 10 20.4405 0.797912 7.2099 
289 4 -1.35979 0.709681 7.24702 
290 4 20.5311 -2.40887 6.82124 
291 4 20.3422 0.753062 10.295 
292 4 20.6104 3.91866 7.31029 
293 9 -0.7586 -1.6417 10.4138 
294 5 -0.580936 -6.8263 10.452 
295 3 0.240715 -1.81968 10.1404 
296 3 -0.806105 -1.541 11.4155 
297 3 -0.832472 -0.638801 10.0692 
298 8 -1.7391 -2.64034 9.76838 
299 2 -2.8007 -2.43626 9.9823 
300 2 -1.62266 -2.56654 8.68968 
301 6 -1.30586 -5.03181 8.92354 
302 5 -0.83892 -6.37771 9.12513 
303 7 -1.39769 -4.10432 10.0098 
304 6 -1.10306 -4.56329 11.3283 
305 5 -0.846833 -5.93688 11.5394 
306 1 -1.50519 -4.65212 7.90775 
307 1 -0.733641 -7.07122 8.30933 
308 1 -1.14252 -3.9247 12.1563 
309 1 -0.367883 -7.83238 10.7843 
310 1 -0.741848 -6.25596 12.5973 
311 9 -1.88231 3.50064 10.0233 
312 5 -2.43585 8.45282 10.194 
313 3 21.8866 3.71416 10.1192 
314 3 -1.65749 2.55594 10.4018 
315 3 -1.6908 3.59207 9.00837 
316 8 -1.03467 4.41095 10.8809 
317 2 -1.16232 4.08617 11.9079 
318 2 -0.0270976 4.17496 10.5361 
319 6 -1.56983 6.38837 9.25297 
320 5 -1.91706 7.75463 9.08872 
321 7 -1.47027 5.89668 10.5742 
322 6 -1.95544 6.67782 11.6532 
323 5 -2.36297 7.93688 11.5282 
324 1 -1.2877 5.82996 8.37586 
325 1 -1.97401 8.14839 8.02434 
326 1 -1.88925 6.24508 12.5901 
327 1 21.9953 9.45521 10.0642 
328 1 -2.77694 8.49817 12.379 
329 10 1.53297 0.999037 13.1798 
330 4 4.75027 0.816379 13.5611 
331 4 1.27749 -2.06855 13.4948 
332 4 1.18633 1.19974 16.2933 
333 4 1.8165 4.01023 13.2996 
334 9 5.50564 -1.51318 16.4612 
335 5 5.36611 -6.59123 16.3317 
336 3 5.26065 -0.478492 16.2808 
337 3 6.48182 -1.55688 16.0374 
338 3 5.57468 -1.68248 17.4984 
339 8 4.28929 -2.4248 15.9574 
340 2 3.35131 -2.0871 16.4628 
341 2 4.27836 -2.23955 14.8846 
342 6 4.77537 -4.66169 14.9646 
343 5 5.30404 -5.94108 15.0729 
344 7 4.55991 -3.90532 16.1365 
345 6 4.77588 -4.44345 17.3851 
346 5 5.04257 -5.87733 17.5022 
347 1 4.63746 -4.20736 14.0176 
348 1 5.58414 -6.44921 14.1387 
349 1 4.57513 -3.87088 18.2359 
350 1 5.76874 -7.5912 16.3663 
351 1 5.06796 -6.45857 18.4627 
352 9 3.93755 3.31383 16.6392 
353 5 5.24193 8.26145 16.7249 
354 3 2.96607 3.66458 16.3566 
355 3 3.96518 3.38522 17.6781 
356 3 3.95572 2.29519 16.4744 
357 8 5.13673 4.02602 15.953 
358 2 6.13628 3.54388 16.2094 
359 2 5.01998 3.92137 14.8666 
360 6 5.44428 6.43031 15.1475 
361 5 5.462 7.79326 15.3894 
362 7 5.24953 5.50903 16.2047 
363 6 5.15107 5.98485 17.5396 
364 5 5.12383 7.3713 17.8022 
365 1 5.37992 6.1261 14.1344 
366 1 5.67333 8.51026 14.5557 
367 1 5.24683 5.3116 18.3893 
368 1 5.36299 9.32487 16.9203 
369 1 5.00512 7.69308 18.8188 
370 10 1.44452 0.803614 19.3267 
371 4 4.80238 0.822735 19.308 
372 4 1.57413 -2.18149 19.2223 
373 4 1.63683 0.811218 -2.16177 
374 4 1.55503 4.05932 19.4694 
375 9 4.60234 -1.68678 21.8376 
376 5 3.79537 -6.74961 -2.65581 
377 3 4.66479 -1.9359 20.8415 
378 3 5.17743 -0.833084 -2.67179 
379 3 3.55134 -1.50392 21.9055 
380 8 5.02239 -2.66723 -1.70286 
381 2 6.10733 -2.48076 -1.72007 
382 2 4.72829 -2.23577 -0.759524 
383 6 3.25434 -4.39997 -2.12123 
384 5 2.87378 -5.68542 -2.43589 
385 7 4.6027 -4.06478 -1.9399 
386 6 5.54084 -5.12141 -2.17207 
387 5 5.16959 -6.43789 -2.5076 
388 1 2.46773 -3.59429 -2.08513 
389 1 1.87236 -5.94218 -2.56227 
390 1 6.59454 -4.89092 -2.08078 
391 1 3.43693 -7.7416 21.7514 
392 1 5.97857 -7.06845 21.8883 
393 9 3.98975 3.34525 -1.83996 
394 5 5.07431 8.27867 -1.7442 
395 3 4.22367 2.34156 -1.63096 
396 3 3.10338 3.4419 -2.28678 
397 3 3.87846 3.72987 -0.872622 
398 8 5.13199 4.00918 -2.61453 
399 2 6.05855 3.58688 -2.20935 
400 2 5.15222 3.80109 20.9351 
401 6 6.33646 6.27829 -2.08865 
402 5 6.29897 7.61659 -1.82748 
403 7 5.19882 5.55933 -2.40855 
404 6 3.92778 6.26376 -2.45287 
405 5 3.85671 7.64529 -2.09002 
406 1 7.21867 5.6769 -2.10182 
407 1 7.21975 8.11972 -1.59256 
408 1 3.06732 5.69104 21.9113 
409 1 5.10549 9.30659 -1.38666 
410 1 2.91922 8.16004 -2.11342 
411 10 1.65531 1.06032 1.10573 
412 4 4.65811 0.989677 0.84981 
413 4 1.22313 -2.05117 1.0637 
414 4 1.42182 0.938614 4.22264 
415 4 1.74626 4.23396 0.965034 
416 9 5.00324 -1.22063 4.3881 
417 5 5.70799 -6.16801 3.92944 
418 3 5.94329 -1.33435 3.9682 
419 3 5.06673 -1.30355 5.38198 
420 3 4.57826 -0.293917 4.16911 
421 8 4.01274 -2.21788 3.75257 
422 2 3.10718 -2.23394 4.27175 
423 2 3.8187 -1.83808 2.75938 
424 6 4.59427 -4.3776 2.57865 
425 5 5.27202 -5.63519 2.62673 
426 7 4.43863 -3.63875 3.76824 
427 6 4.81682 -4.17854 4.98562 
428 5 5.43556 -5.46716 5.09165 
429 1 4.41534 -3.98009 1.60066 
430 1 5.5426 -6.04533 1.73154 
431 1 4.73929 -3.67047 5.97759 
432 1 6.35725 -7.10732 3.92563 
433 1 5.64096 -5.97575 6.04223 
434 9 5.29671 3.38344 3.44633 
435 5 5.65024 8.41848 3.88529 
436 3 5.25079 2.38946 3.77291 
437 3 6.24878 3.66784 3.27671 
438 3 4.87273 3.49973 2.49596 
439 8 4.49204 4.29704 4.41586 
440 2 3.42852 3.97102 4.43036 
441 2 4.98204 4.14304 5.45034 
442 6 5.05823 6.566 5.30475 
443 5 5.45871 7.86145 5.16432 
444 7 4.75964 5.80517 4.17872 
445 6 4.79472 6.38534 2.91715 
446 5 5.18047 7.72139 2.78152 
447 1 4.99896 6.04971 6.28734 
448 1 5.8113 8.46935 6.00294 
449 1 4.46398 5.84949 2.06337 
450 1 6.02238 9.4021 3.72422 
451 1 5.3558 8.12376 1.7266 
452 10 1.85476 0.887619 7.45399 
453 4 4.80102 1.20096 6.87904 
454 4 2.13788 -2.17633 7.60322 
455 4 2.06201 1.0984 10.322 
456 4 1.64139 4.05595 7.30821 
457 9 5.10259 -1.58632 10.2597 
458 5 4.51631 -6.81911 10.0511 
459 3 5.07041 -0.645948 10.7382 
460 3 4.58383 -1.50535 9.42732 
461 3 6.05372 -1.82744 9.98136 
462 8 4.29001 -2.62894 11.0089 
463 2 4.50975 -2.51488 12.126 
464 2 3.30309 -2.22662 10.9839 
465 6 5.60982 -4.68442 10.2451 
466 5 5.69706 -6.05371 9.87536 
467 7 4.37355 -4.06521 10.5745 
468 6 3.26319 -4.83761 10.4513 
469 5 3.32891 -6.21843 10.3176 
470 1 6.57192 -4.09786 10.2892 
471 1 6.71687 -6.4885 9.71413 
472 1 2.32819 -4.3399 10.7333 
473 1 4.48108 -7.90115 9.72365 
474 1 2.39556 -6.77206 10.3257 
475 9 4.74216 3.5369 11.1285 
476 5 4.8586 8.51152 10.9217 
477 3 4.86761 2.51407 11.1223 
478 3 3.72571 3.72114 10.9787 
479 3 4.93106 3.71273 12.1669 
480 8 5.32021 4.35416 9.99768 
481 2 6.32087 4.03148 9.92197 
482 2 4.81203 4.06228 9.04861 
483 6 6.29087 6.60166 10.5806 
484 5 6.1211 7.96749 10.7889 
485 7 5.16115 5.83685 10.2536 
486 6 3.89272 6.39889 10.268 
487 5 3.72786 7.72943 10.6076 
488 1 7.22158 6.22093 10.6755 
489 1 7.0035 8.5827 10.8507 
490 1 3.00764 5.75255 10.1811 
491 1 4.73046 9.58529 11.0592 
492 1 2.69218 8.10958 10.6449 
493 10 8.02667 0.778899 13.245 
494 4 11.1261 1.13523 12.9399 
495 4 7.71862 -2.44935 13.4542 
496 4 8.33737 0.618375 16.201 
497 4 7.82036 3.85634 13.1186 
498 9 11.1349 -1.66652 16.8622 
499 5 11.0651 -6.4686 17.593 
500 3 10.9256 -0.687563 16.5855 
501 3 11.9181 -1.68508 17.5642 
502 3 10.3268 -2.01956 17.4354 
503 8 11.5452 -2.59422 15.6762 
504 2 10.831 -2.44837 14.8075 
505 2 12.5645 -2.27244 15.5693 
506 6 10.1474 -4.50441 16.5107 
507 5 9.96963 -5.75053 17.1267 
508 7 11.4628 -3.98061 16.2733 
509 6 12.5963 -4.73866 16.634 
510 5 12.3973 -5.98763 17.336 
511 1 9.21347 -3.99346 16.1371 
512 1 8.95604 -6.24014 17.1877 
513 1 13.6056 -4.23415 16.5195 
514 1 11.029 -7.43838 18.0727 
515 1 13.246 -6.53135 17.6282 
516 9 10.9668 3.35484 17.095 
517 5 9.9503 8.25059 17.169 
518 3 9.96655 3.13067 17.0297 
519 3 11.176 3.59483 18.044 
520 3 11.5012 2.48687 16.8608 
521 8 11.4495 4.41285 16.0306 
522 2 12.5411 4.51172 15.8953 
523 2 11.0908 4.11798 15.0622 
524 6 11.8313 6.72651 16.7768 
525 5 11.3423 7.92518 17.2397 
526 7 10.9147 5.78971 16.3198 
527 6 9.51601 6.06988 16.2299 
528 5 9.03111 7.2267 16.7514 
529 1 12.8575 6.45254 16.9561 
530 1 12.073 8.73005 17.572 
531 1 8.85866 5.22576 15.9419 
532 1 9.59642 9.1917 17.5386 
533 1 7.99998 7.34957 16.8889 
534 10 7.86441 0.822819 19.2746 
535 4 10.8975 0.641106 19.4664 
536 4 7.85601 -2.35995 19.2602 
537 4 7.82812 0.766736 -2.27504 
538 4 8.09453 3.80566 19.309 
539 9 10.913 -1.59808 -1.47504 
540 5 10.4595 -6.79671 -2.05593 
541 3 11.3162 -1.77041 -0.536724 
542 3 9.87776 -1.65671 -1.38027 
543 3 11.1411 -0.648406 -1.72184 
544 8 11.4251 -2.60048 -2.46807 
545 2 11.1559 -2.32424 21.153 
546 2 12.5329 -2.52416 -2.51604 
547 6 11.2185 -4.70556 -1.09748 
548 5 11.0076 -6.10298 -0.940682 
549 7 11.0623 -4.06175 -2.34216 
550 6 10.7488 -4.84257 21.1589 
551 5 10.3996 -6.16243 21.2961 
552 1 11.3942 -4.15795 -0.248048 
553 1 11.2138 -6.59335 0.0347822 
554 1 10.6684 -4.33937 20.1831 
555 1 10.3008 -7.84005 -2.04678 
556 1 9.86791 -6.68322 20.5288 
557 9 10.6157 3.17688 21.8025 
558 5 9.77017 8.0945 -2.25394 
559 3 11.0597 3.40842 20.8682 
560 3 9.55199 3.20521 21.7096 
561 3 10.9805 2.14511 -2.56107 
562 8 11.1785 4.15729 -1.89831 
563 2 10.9798 3.75759 -0.897574 
564 2 12.2345 4.153 -1.96454 
565 6 10.615 6.09543 21.328 
566 5 9.98675 7.33995 21.2362 
567 7 10.8141 5.57993 -2.0218 
568 6 10.5587 6.33241 -0.852806 
569 5 10.1245 7.62335 -0.957212 
570 1 10.8771 5.48723 20.5098 
571 1 9.6238 7.79599 20.3031 
572 1 10.8403 5.84761 0.106836 
573 1 9.46527 9.10231 -2.36543 
574 1 9.90322 8.21176 -0.0575744 
575 10 7.94638 0.830574 0.786151 
576 4 10.8291 0.986472 0.887774 
577 4 7.96501 -2.12868 1.00001 
578 4 8.05099 0.961769 4.02435 
579 4 7.80798 3.91055 0.869105 
580 9 11.4775 -1.42533 3.41383 
581 5 11.1974 -6.27925 2.86614 
582 3 10.9512 -1.62499 2.5737 
583 3 12.5218 -1.48986 3.17792 
584 3 11.3805 -0.399026 3.65866 
585 8 11.1426 -2.36165 4.65894 
586 2 11.84 -2.17475 5.43753 
587 2 10.1681 -2.16857 5.05293 
588 6 9.9527 -4.38823 3.81742 
589 5 9.94762 -5.64722 3.10525 
590 7 11.2 -3.81744 4.21504 
591 6 12.3839 -4.50446 4.09263 
592 5 12.4212 -5.75601 3.40671 
593 1 9.01818 -3.78189 3.90466 
594 1 8.96936 -6.08634 2.85597 
595 1 13.2783 -4.00057 4.34472 
596 1 11.1288 -7.29273 2.36356 
597 1 13.3779 -6.18027 3.25163 
598 9 10.6563 3.29499 4.31127 
599 5 10.6282 8.42231 5.05187 
600 3 9.66541 3.52993 4.4255 
601 3 11.048 3.26209 5.27861 
602 3 10.7856 2.34127 3.85674 
603 8 11.2038 4.45129 3.47722 
604 2 12.2468 4.34451 3.46904 
605 2 10.8655 4.32148 2.44029 
606 6 12.0499 6.70405 4.18345 
607 5 11.8896 7.97684 4.72611 
608 7 10.9522 5.8988 3.93502 
609 6 9.65112 6.36583 4.18137 
610 5 9.4698 7.62342 4.78946 
611 1 13.0027 6.21277 4.15587 
612 1 12.9116 8.38618 4.90231 
613 1 8.76795 5.7675 3.90912 
614 1 10.6372 9.32711 5.65336 
615 1 8.53621 7.85823 5.22157 
616 10 7.74932 0.9666 7.05681 
617 4 11.0713 0.793345 7.06515 
618 4 7.43108 -2.18791 7.20031 
619 4 7.67564 0.711522 10.2841 
620 4 8.09507 4.06325 7.03232 
621 9 11.41 -1.47713 9.98158 
622 5 10.2635 -6.45859 8.73557 
623 3 11.228 -0.473032 10.1842 
624 3 11.5776 -1.47832 8.92618 
625 3 12.2679 -1.74638 10.4256 
626 8 10.3289 -2.3889 10.3718 
627 2 10.5099 -2.32244 11.4842 
628 2 9.34166 -2.02883 10.0739 
629 6 10.5332 -4.04778 8.40157 
630 5 10.4785 -5.36207 7.92981 
631 7 10.4755 -3.80066 9.78285 
632 6 10.2984 -4.96738 10.5868 
633 5 10.2183 -6.27529 10.0817 
634 1 10.7633 -3.14398 7.75735 
635 1 10.3753 -5.52072 6.85346 
636 1 10.2246 -4.84961 11.675 
637 1 10.2186 -7.42339 8.33349 
638 1 10.1817 -7.12275 10.7392 
639 9 10.4515 3.07694 10.1016 
640 5 10.3871 8.21245 10.4547 
641 3 10.8975 2.11531 10.1371 
642 3 9.57921 2.86894 9.62132 
643 3 10.1211 3.29932 11.0943 
644 8 11.4151 4.12859 9.52333 
645 2 12.4 3.97922 9.90453 
646 2 11.516 3.92373 8.44142 
647 6 10.6203 5.95764 11.146 
648 5 10.3212 7.32062 11.4768 
649 7 10.9959 5.5617 9.82403 
650 6 11.1086 6.58915 8.84601 
651 5 10.7766 7.927 9.15495 
652 1 10.6643 5.21988 11.9558 
653 1 10.0189 7.62032 12.4789 
654 1 11.2743 6.24301 7.8351 
655 1 10.1689 9.23764 10.732 
656 1 10.7944 8.76981 8.38422 
ITEM: TIMESTEP
111000
ITEM: NUMBER OF ATOMS
656
ITEM: BOX BOUNDS pp pp pp
-2.8091036059225285e+00 2.2009103605922448e+01
-4.3779677730546460e+01 4.3779677730546460e+01
-2.7162329367920108e+00 2.1916232936792156e+01
ITEM: ATOMS id type x y z 
1 10 14.0487 0.95567 13.1106 
2 4 16.952 0.728114 12.9898 
3 4 14.1817 -2.3768 13.0332 
4 4 13.8069 1.02762 16.1943 
5 4 14.3318 4.14384 12.9886 
6 9 17.0729 -1.70102 16.7214 
7 5 15.8847 -6.64235 15.9314 
8 3 16.0489 -1.553 16.5307 
9 3 17.5434 -0.745181 16.8205 
10 3 17.1333 -2.00676 17.7257 
11 8 17.7757 -2.70264 15.7918 
12 2 17.7196 -2.28241 14.7847 
13 2 18.7931 -2.68752 16.0528 
14 6 16.8347 -4.72919 14.6552 
15 5 16.191 -5.98107 14.7216 
16 7 17.1053 -4.0521 15.8801 
17 6 16.7518 -4.685 17.0889 
18 5 16.0746 -5.93872 17.153 
19 1 17.1579 -4.24115 13.6898 
20 1 15.745 -6.39358 13.8517 
21 1 16.9009 -4.11038 17.9595 
22 1 15.2911 -7.56901 15.7997 
23 1 15.6093 -6.40722 18.0655 
24 9 16.9538 3.1962 15.8281 
25 5 16.7302 8.17902 16.1692 
26 3 17.0219 2.19732 15.9384 
27 3 17.1161 3.35066 14.779 
28 3 15.9265 3.43397 15.9843 
29 8 17.8412 4.13837 16.5483 
30 2 17.7864 3.8533 17.6028 
31 2 18.8772 4.0058 16.2004 
32 6 17.2893 6.13375 15.1002 
33 5 16.9519 7.46288 15.0242 
34 7 17.4185 5.55184 16.3451 
35 6 17.1872 6.25914 17.4884 
36 5 16.8323 7.61141 17.4352 
37 1 17.3347 5.53041 14.1832 
38 1 16.8177 7.89844 14.0478 
39 1 17.4336 5.74621 18.4824 
40 1 16.3925 9.16033 16.135 
41 1 16.6287 8.10037 18.3856 
42 10 14.0492 0.980846 19.1855 
43 4 17.1633 1.13199 19.1655 
44 4 14.4127 -2.13485 19.063 
45 4 14.0535 0.874432 -2.32839 
46 4 14.1229 4.08582 18.8065 
47 9 16.9596 -1.38379 21.7791 
48 5 17.0629 -6.40987 -2.29166 
49 3 17.389 -0.446143 21.9199 
50 3 15.9352 -1.35215 21.7606 
51 3 17.251 -1.80798 20.8711 
52 8 17.4737 -2.2006 -1.7148 
53 2 18.5933 -2.01982 -1.67337 
54 2 17.0898 -1.93465 -0.726984 
55 6 16.036 -4.2834 -2.05702 
56 5 15.8932 -5.64315 -2.32014 
57 7 17.2787 -3.68206 -1.82416 
58 6 18.462 -4.42805 -2.08021 
59 5 18.3336 -5.84071 -2.32348 
60 1 15.1213 -3.6637 -2.10109 
61 1 14.8888 -6.06077 -2.44309 
62 1 19.4405 -3.91239 -1.99406 
63 1 17.0662 -7.49376 -2.46629 
64 1 19.2116 -6.35702 -2.49805 
65 9 17.621 3.6554 -2.06012 
66 5 17.0364 8.58413 -1.48931 
67 3 17.4348 3.72955 -1.01712 
68 3 18.6836 3.82353 -2.26183 
69 3 17.5128 2.63419 -2.33069 
70 8 16.7971 4.50991 21.6898 
71 2 17.2136 4.40735 20.7279 
72 2 15.7688 4.10655 21.7516 
73 6 18.1283 6.59015 -2.52097 
74 5 18.2018 7.87978 -1.92834 
75 7 16.856 5.93488 -2.48372 
76 6 15.6564 6.65343 -2.13852 
77 5 15.739 7.92326 -1.65542 
78 1 19.0002 6.1218 21.7356 
79 1 19.1846 8.27999 -1.8872 
80 1 14.751 6.1414 -2.24807 
81 1 17.1311 9.57168 -1.11667 
82 1 14.8726 8.45349 -1.40419 
83 10 14.1757 0.918969 0.695436 
84 4 17.3661 0.984902 1.19977 
85 4 13.8703 -2.16428 0.908828 
86 4 13.7849 0.779525 3.75339 
87 4 14.4962 3.94604 0.398877 
88 9 18.0869 -1.58303 4.02101 
89 5 16.6865 -6.38835 4.55761 
90 3 18.0739 -0.646763 3.64642 
91 3 18.9995 -1.96048 3.86186 
92 3 17.9455 -1.55361 4.99978 
93 8 16.8242 -2.28001 3.43608 
94 2 15.9788 -1.74848 3.8373 
95 2 16.9269 -2.17822 2.38953 
96 6 17.1077 -4.11451 5.11197 
97 5 17.1123 -5.44904 5.48892 
98 7 16.7442 -3.69103 3.81037 
99 6 16.4015 -4.63587 2.83422 
100 5 16.3679 -5.98478 3.26592 
101 1 17.3069 -3.34704 5.82259 
102 1 17.3888 -5.77078 6.49672 
103 1 16.2206 -4.24027 1.805 
104 1 16.7013 -7.4318 4.83457 
105 1 15.9845 -6.7288 2.54517 
106 9 16.6429 3.36365 3.55231 
107 5 15.6665 8.19406 3.9956 
108 3 16.9779 2.37402 3.65279 
109 3 16.5584 3.49807 2.53486 
110 3 15.6974 3.4603 3.94813 
111 8 17.6783 4.38361 4.09552 
112 2 17.9958 4.12139 5.12477 
113 2 18.6098 4.35532 3.48051 
114 6 16.6666 6.30158 2.77373 
115 5 15.869 7.52873 2.77642 
116 7 17.095 5.79269 4.02537 
117 6 16.8356 6.49582 5.18764 
118 5 16.1583 7.68331 5.1625 
119 1 17.0052 5.92978 1.80069 
120 1 15.6048 8.00169 1.8475 
121 1 17.0461 6.07479 6.2028 
122 1 15.0419 9.11507 3.95016 
123 1 15.7531 8.0657 6.07596 
124 10 14.0666 0.838804 6.95344 
125 4 17.0756 0.794844 6.7893 
126 4 13.9523 -2.39727 7.13483 
127 4 13.8948 0.88255 9.96323 
128 4 14.2398 3.87183 6.7658 
129 9 16.4751 -1.68826 9.93143 
130 5 17.6747 -6.51676 10.6951 
131 3 16.512 -0.714287 9.69735 
132 3 16.49 -1.74616 10.974 
133 3 15.5019 -2.00262 9.74877 
134 8 17.5498 -2.53325 9.20975 
135 2 17.3238 -2.31237 8.14038 
136 2 18.4751 -2.096 9.4935 
137 6 16.4363 -4.72914 9.85177 
138 5 16.4119 -6.04399 10.4056 
139 7 17.6328 -3.9717 9.59113 
140 6 18.8658 -4.64077 9.81394 
141 5 18.8587 -5.88046 10.4382 
142 1 15.5596 -4.26454 9.57099 
143 1 15.452 -6.65024 10.6351 
144 1 19.7895 -4.14917 9.6069 
145 1 17.8038 -7.51143 11.1248 
146 1 19.777 -6.4044 10.6432 
147 9 17.6011 3.37203 10.5663 
148 5 16.7896 8.55246 9.58097 
149 3 17.4224 3.44087 11.5894 
150 3 18.6233 3.68048 10.4579 
151 3 17.489 2.33484 10.3552 
152 8 16.6836 4.28305 9.70927 
153 2 16.9597 4.06939 8.67218 
154 2 15.6355 3.87907 9.80276 
155 6 17.9353 6.42758 10.0161 
156 5 17.9999 7.84481 9.86256 
157 7 16.7145 5.75633 9.99746 
158 6 15.5519 6.50005 9.84765 
159 5 15.5556 7.86268 9.53354 
160 1 18.8511 5.90293 10.0498 
161 1 18.9911 8.2937 9.89659 
162 1 14.6928 5.89723 9.7377 
163 1 16.7804 9.61193 9.53558 
164 1 14.656 8.42607 9.36273 
165 10 20.2572 0.508111 12.9687 
166 4 -1.46036 0.587836 12.999 
167 4 20.5016 -2.48916 12.9805 
168 4 20.2287 0.701111 16.0353 
169 4 20.2403 3.87685 13.0171 
170 9 -1.55368 -1.87155 15.5834 
171 5 -0.172851 -6.51953 17.3675 
172 3 -1.66625 -2.33348 14.6179 
173 3 -0.561024 -1.68814 15.7195 
174 3 -1.98535 -0.983538 15.4608 
175 8 -2.17296 -2.74434 16.6905 
176 2 -2.10584 -2.06533 17.5414 
177 2 21.6184 -2.94217 16.4078 
178 6 -2.16822 -5.21391 17.1787 
179 5 -1.58892 -6.44263 17.4242 
180 7 -1.42616 -4.04483 16.9115 
181 6 -0.0180296 -4.17643 16.7392 
182 5 0.616665 -5.4512 17.0273 
183 1 21.5845 -5.05918 17.2522 
184 1 -2.1406 -7.29063 17.794 
185 1 0.522084 -3.22798 16.6948 
186 1 0.378263 -7.46302 17.6028 
187 1 1.73271 -5.41315 17.1433 
188 9 -1.75365 3.01912 15.6771 
189 5 -0.821857 8.17968 15.8148 
190 3 -2.60484 3.34886 15.1346 
191 3 -1.8239 2.00308 15.9325 
192 3 -0.986419 3.02464 15.0417 
193 8 -1.42251 4.01373 16.7983 
194 2 -2.22602 3.8598 17.4693 
195 2 -0.511386 3.70278 17.3155 
196 6 -2.19661 6.14885 15.7015 
197 5 -1.99755 7.56272 15.5128 
198 7 -1.14298 5.45969 16.3628 
199 6 0.122757 6.1025 16.6032 
200 5 0.235892 7.49761 16.3773 
201 1 21.5995 5.70903 15.4184 
202 1 22.0105 8.30253 15.3006 
203 1 0.88242 5.5331 17.068 
204 1 -0.709907 9.2581 15.7017 
205 1 1.19252 7.9611 16.4927 
206 10 20.2612 0.898324 19.3135 
207 4 -1.48614 0.976658 19.4655 
208 4 19.8291 -2.04169 19.3419 
209 4 20.0562 0.997122 -2.16852 
210 4 20.3311 3.95207 19.7801 
211 9 -1.16099 -1.32648 -2.04979 
212 5 -0.974075 -6.34751 -2.20895 
213 3 -1.25462 -0.396469 -2.37152 
214 3 -0.252266 -1.70875 -2.49342 
215 3 -1.1256 -1.36651 -0.973778 
216 8 -2.21764 -2.25551 -2.64269 
217 2 21.6792 -1.98737 -2.1625 
218 2 -2.27329 -2.03017 20.9397 
219 6 -1.41674 -4.17717 -1.19214 
220 5 -1.0633 -5.52593 -1.05942 
221 7 -1.84421 -3.69121 -2.40729 
222 6 -1.6667 -4.43893 21.0606 
223 5 -1.21099 -5.73276 21.1799 
224 1 -1.39497 -3.5577 -0.224563 
225 1 -0.812055 -5.95672 -0.0757658 
226 1 -1.71356 -3.95429 20.1188 
227 1 -0.652521 -7.36468 -2.29683 
228 1 -1.10224 -6.32146 20.3183 
229 9 -2.04836 3.52936 -1.96362 
230 5 -2.47184 8.35283 -0.735684 
231 3 -1.85428 2.61928 -2.37503 
232 3 21.8713 3.85635 -2.27223 
233 3 -2.23091 3.46563 -0.943688 
234 8 -1.04508 4.64016 -2.3361 
235 2 -0.0336146 4.38498 -2.06346 
236 2 -1.0508 4.74048 21.1696 
237 6 -2.22195 6.79285 -2.59392 
238 5 -2.6837 8.04825 -2.09067 
239 7 -1.56722 5.90127 -1.71203 
240 6 -1.2842 6.29479 -0.346774 
241 5 -1.85508 7.43732 0.169119 
242 1 -2.35482 6.51192 20.9565 
243 1 21.6576 8.82629 21.9122 
244 1 -0.741766 5.63822 0.290254 
245 1 21.9223 9.2464 -0.334146 
246 1 -1.80336 7.68215 1.23698 
247 10 20.2804 1.09671 0.975109 
248 4 -1.5158 1.27602 1.14675 
249 4 20.5881 -1.85095 1.1871 
250 4 20.3035 1.47215 3.93624 
251 4 20.1053 4.26708 0.51933 
252 9 -1.48901 -1.43421 3.497 
253 5 -1.0957 -6.63866 3.26427 
254 3 -1.17905 -0.47566 3.7406 
255 3 -2.52871 -1.60213 3.68569 
256 3 -1.30311 -1.62178 2.4725 
257 8 -0.702296 -2.38411 4.39744 
258 2 0.390715 -2.07633 4.33981 
259 2 -0.928639 -2.1668 5.46314 
260 6 0.20729 -4.79879 4.19855 
261 5 0.188922 -6.088 3.62711 
262 7 -0.856272 -3.86925 4.07736 
263 6 -2.13122 -4.43795 3.74827 
264 5 -2.18597 -5.77245 3.24518 
265 1 1.07569 -4.35168 4.57634 
266 1 1.01706 -6.76482 3.70193 
267 1 21.8202 -3.76233 3.83847 
268 1 -1.31823 -7.67208 2.83292 
269 1 21.6164 -6.15406 2.93942 
270 9 -1.43009 3.39335 4.75667 
271 5 -1.93617 8.52427 4.27939 
272 3 -0.897198 3.8375 5.54255 
273 3 -0.993209 2.40318 4.70631 
274 3 -2.37498 3.29137 5.15537 
275 8 -1.46078 4.31616 3.53579 
276 2 -0.498191 4.1611 3.06068 
277 2 -2.25142 3.989 2.92426 
278 6 -0.557894 6.63121 3.66693 
279 5 -0.676723 7.98246 3.91653 
280 7 -1.62191 5.77611 3.79959 