LAMMPS (3 Mar 2020)
OMP_NUM_THREADS environment is not set. Defaulting to 1 thread. (src/comm.cpp:94)
  using 1 OpenMP thread(s) per MPI task
Reading data file ...
  orthogonal box = (-3.2 -43.7797 -3.2) to (22.4 43.7797 22.4)
  4 by 8 by 4 MPI processor grid
  reading atoms ...
  656 atoms
  scanning bonds ...
  4 = max bonds/atom
  scanning angles ...
  11 = max angles/atom
  scanning dihedrals ...
  21 = max dihedrals/atom
  reading bonds ...
  576 bonds
  reading angles ...
  960 angles
  reading dihedrals ...
  1248 dihedrals
Finding 1-2 1-3 1-4 neighbors ...
  special bond factors lj:   0          0          0.5       
  special bond factors coul: 0          0          0.833333  
  4 = max # of 1-2 neighbors
  7 = max # of 1-3 neighbors
  14 = max # of 1-4 neighbors
  16 = max # of special neighbors
  special bonds CPU = 0.0217825 secs
  read_data CPU = 0.0654781 secs
PPPM initialization ...
  using 12-bit tables for long-range coulomb (src/kspace.cpp:332)
  G vector (1/distance) = 0.15861
  grid = 8 18 8
  stencil order = 5
  estimated absolute RMS force accuracy = 0.0216358
  estimated relative force accuracy = 6.51555e-05
  using double precision KISS FFT
  3d grid and FFT values/proc = 392 16
Neighbor list info ...
  update every 1 steps, delay 10 steps, check yes
  max neighbors/atom: 10000, page size: 100000
  master list distance cutoff = 17
  ghost atom cutoff = 17
  binsize = 8.5, bins = 4 11 4
  3 neighbor lists, perpetual/occasional/extra = 3 0 0
  (1) pair buck/coul/long, perpetual, skip from (3)
      attributes: half, newton off
      pair build: skip
      stencil: none
      bin: none
  (2) pair lj/cut/coul/long, perpetual, skip from (3)
      attributes: half, newton off
      pair build: skip
      stencil: none
      bin: none
  (3) neighbor class addition, perpetual
      attributes: half, newton off
      pair build: half/bin/newtoff
      stencil: half/bin/3d/newtoff
      bin: standard
Setting up Verlet run ...
  Unit style    : real
  Current step  : 0
  Time step     : 1
Per MPI rank memory allocation (min/avg/max) = 19.58 | 19.73 | 20.1 Mbytes
Step Temp Volume Density TotEng PotEng E_bond E_angle E_dihed E_coul E_long E_vdwl Enthalpy Press 
       0     298.000000   57382.899195       0.431122   -8970.011871   -9551.836184      18.560582      22.998292       4.401131   -5716.601650   -4576.398885     695.204344   -3629.225159    6381.853911 
    1000      76.944615   57382.899195       0.431122  -10870.701209  -11020.930228      11.563649      25.793996      21.488999   -5940.189821   -4644.587147    -494.999904  -12133.434184   -1508.874593 
    2000      65.928078   57382.899195       0.431122  -10955.389778  -11084.109774      10.571042      27.734272      21.321600   -6080.978477   -4646.063352    -416.694859  -11505.370382    -657.187051 
    3000      60.254170   57382.899195       0.431122  -10993.809943  -11111.452028       9.956202      28.083344      23.992032   -6087.600073   -4648.844527    -437.039006  -11419.549264    -508.727702 
    4000      50.643115   57382.899195       0.431122  -11024.130677  -11123.007843       9.708631      26.852139      24.847773   -6100.250241   -4646.876598    -437.289548  -11504.237395    -573.692810 
    5000      47.079630   57382.899195       0.431122  -11043.739970  -11135.659679       8.541070      28.230282      20.072605   -6073.438416   -4646.535039    -472.530182  -11590.756538    -653.645242 
    6000      44.357436   57382.899195       0.431122  -11061.571940  -11148.176755       7.139018      26.325310      21.089839   -6112.045599   -4648.467630    -442.217692  -11247.617227    -222.310663 
    7000      43.621763   57382.899195       0.431122  -11070.760904  -11155.929368       7.770255      27.585056      21.184119   -6092.139458   -4646.412679    -473.916661  -11380.882131    -370.572441 
    8000      40.051458   57382.899195       0.431122  -11080.537346  -11158.735037       7.845112      26.365087      17.979419   -6069.681124   -4646.603061    -494.640470  -11494.100211    -494.177717 
    9000      37.821392   57382.899195       0.431122  -11090.076048  -11163.919691       8.497170      27.715780      18.132114   -6099.827401   -4646.197510    -472.239844  -11483.660665    -470.305157 
   10000      38.181329   57382.899195       0.431122  -11098.030472  -11172.576867       8.657225      26.917704      17.421511   -6115.910121   -4646.002602    -463.660583  -11422.254891    -387.424735 
Loop time of 10.5823 on 128 procs for 10000 steps with 656 atoms

Performance: 81.646 ns/day, 0.294 hours/ns, 944.975 timesteps/s
99.9% CPU use with 128 MPI tasks x 1 OpenMP threads

MPI task timing breakdown:
Section |  min time  |  avg time  |  max time  |%varavg| %total
---------------------------------------------------------------
Pair    | 0.0026062  | 1.0298     | 4.6376     | 176.0 |  9.73
Bond    | 0.0012183  | 0.063044   | 0.26934    |  42.6 |  0.60
Kspace  | 3.2095     | 7.7214     | 9.6753     |  80.9 | 72.97
Neigh   | 0.037444   | 0.05371    | 0.070811   |   5.1 |  0.51
Comm    | 0.0042749  | 0.86881    | 1.6627     |  63.1 |  8.21
Output  | 0.0079833  | 0.0080033  | 0.0080195  |   0.0 |  0.08
Modify  | 0.74431    | 0.75575    | 0.76818    |   0.8 |  7.14
Other   |            | 0.08174    |            |       |  0.77

Nlocal:    5.125 ave 24 max 0 min
Histogram: 96 0 0 0 0 0 0 11 11 10
Nghost:    907.828 ave 1774 max 0 min
Histogram: 32 16 16 0 0 0 0 0 18 46
Neighs:    453.383 ave 3299 max 0 min
Histogram: 96 0 3 10 6 0 5 1 3 4

Total # of neighbors = 58033
Ave neighs/atom = 88.4649
Ave special neighs/atom = 8.19512
Neighbor list builds = 77
Dangerous builds = 0
PPPM initialization ...
  using 12-bit tables for long-range coulomb (src/kspace.cpp:332)
  G vector (1/distance) = 0.15861
  grid = 8 18 8
  stencil order = 5
  estimated absolute RMS force accuracy = 0.0216358
  estimated relative force accuracy = 6.51555e-05
  using double precision KISS FFT
  3d grid and FFT values/proc = 392 16
Neighbor list info ...
  update every 1 steps, delay 10 steps, check yes
  max neighbors/atom: 10000, page size: 100000
  master list distance cutoff = 17
  ghost atom cutoff = 17
  binsize = 8.5, bins = 4 11 4
  3 neighbor lists, perpetual/occasional/extra = 3 0 0
  (1) pair buck/coul/long, perpetual, skip from (3)
      attributes: half, newton off
      pair build: skip
      stencil: none
      bin: none
  (2) pair lj/cut/coul/long, perpetual, skip from (3)
      attributes: half, newton off
      pair build: skip
      stencil: none
      bin: none
  (3) neighbor class addition, perpetual
      attributes: half, newton off
      pair build: half/bin/newtoff
      stencil: half/bin/3d/newtoff
      bin: standard
Setting up Verlet run ...
  Unit style    : real
  Current step  : 10000
  Time step     : 1
Per MPI rank memory allocation (min/avg/max) = 19.58 | 19.73 | 20.1 Mbytes
Step Temp Volume Density TotEng PotEng E_bond E_angle E_dihed E_coul E_long E_vdwl Enthalpy Press 
   10000      38.181329   57382.899195       0.431122  -11098.030472  -11172.576867       8.657225      26.917704      17.421511   -6115.910121   -4646.002602    -463.660583  -11422.254891    -387.424735 
   11000      95.463480   56912.343482       0.434687  -10816.372894  -11002.758711      12.182317      34.301001      33.763820   -6087.079414   -4644.564046    -351.362389  -10965.536841    -179.713833 
   12000     315.244727   59999.641892       0.412320   -9894.831799  -10510.325245      39.446442      93.351650     106.067485   -5894.957387   -4636.324414    -217.909022   -9541.146025     404.196961 
   13000     280.036243   56488.347071       0.437950  -10065.828967  -10612.580291      54.717720     108.389230     111.789904   -6059.610776   -4632.901629    -194.964740  -10290.955549    -273.270041 
   14000     310.994171   56742.219424       0.435990   -9988.792161  -10595.986692      66.401252     121.510240     121.425777   -5962.210788   -4639.546835    -303.566338  -10415.618266    -515.785067 
   15000     307.392603   55537.190041       0.445450  -10045.561816  -10645.724534      74.694959     148.218732      88.544265   -6047.086722   -4641.997115    -268.098654   -9745.811554     370.083548 
   16000     291.685678   55556.439599       0.445296  -10049.853277  -10619.349314      89.087140     149.078207     105.527841   -6072.094422   -4635.226015    -255.722065  -10095.551965     -56.401862 
   17000     292.477302   56236.025572       0.439915   -9999.419390  -10570.461019      98.221022     143.702432     125.117929   -6076.844844   -4639.257971    -221.399586   -9742.013031     313.854791 
   18000     300.048869   55318.602384       0.447210  -10068.076657  -10653.901245     117.968166     143.680071     102.181279   -6049.118837   -4641.268680    -327.343245  -10269.086291    -249.155101 
   19000     298.766610   56125.132325       0.440784  -10047.443923  -10630.764989     108.142471     159.673417     105.155582   -6052.332908   -4643.900916    -307.502634   -9757.289310     354.483653 
   20000     303.570504   55269.348936       0.447609  -10024.594006  -10617.294342     122.705462     180.631218     116.710537   -6043.075672   -4642.908575    -351.357314   -9989.465374      43.581382 
   21000     297.627059   55093.775766       0.449035  -10051.615202  -10632.711373     133.337957     160.403039     103.258184   -6055.043149   -4640.685090    -333.982314   -9806.552055     304.999817 
   22000     293.435998   54599.650891       0.453099  -10068.038274  -10640.951690     148.891005     174.729935      96.471408   -6154.498762   -4637.674071    -268.871205   -9855.139332     267.366966 
   23000     311.917055   54800.889808       0.451435  -10042.665753  -10651.662151     156.395995     184.518263      98.904405   -6110.237249   -4641.853105    -339.390460  -10228.591755    -232.635844 
   24000     301.455889   54599.314908       0.453102  -10050.684559  -10639.256255     148.816793     182.194325     112.901468   -6153.752355   -4636.914659    -292.501827  -10065.691216     -18.846074 
   25000     313.357342   54531.464939       0.453666  -10064.431848  -10676.240306     134.404062     192.891910     113.842970   -6188.286399   -4639.170622    -289.922226  -10276.273437    -266.371755 
   26000     290.733413   54304.448349       0.455562  -10114.748334  -10682.385140     145.742072     168.346346     103.322706   -6169.096537   -4639.079212    -291.620515  -10047.894537      84.414059 
   27000     303.831244   54475.568906       0.454131  -10038.947347  -10632.156760     155.518582     198.082638     104.166834   -6133.635679   -4638.739811    -317.549324  -10203.388414    -206.982020 
   28000     307.622221   54504.081913       0.453894  -10039.903785  -10640.514817     154.230919     198.405829     100.675917   -6150.180402   -4640.124342    -303.522738  -10383.248688    -431.942251 
   29000     307.395936   54076.212021       0.457485  -10073.467239  -10673.636465     154.363121     173.835219     106.401905   -6184.846135   -4639.197483    -284.193091   -9823.149560     317.401790 
   30000     329.736049   54151.740569       0.456847   -9969.743484  -10613.530231     161.075737     209.114259     103.678381   -6156.489479   -4640.041426    -290.867702   -9837.490433     167.462430 
   31000     310.122079   54163.476998       0.456748  -10067.366493  -10672.858323     155.118928     179.486819      99.792858   -6183.900735   -4640.416473    -282.939720  -10183.060202    -146.462796 
   32000     287.099814   54162.370246       0.456757  -10107.237361  -10667.779817     163.524467     184.093258      97.679124   -6128.818771   -4642.721124    -341.536772  -10168.877086     -78.034588 
   33000     297.617492   54397.460590       0.454783  -10104.535527  -10685.613021     155.345505     182.772066      95.067552   -6187.779648   -4638.943582    -292.074915  -10087.471067      21.509883 
   34000     292.802950   54543.713964       0.453564  -10071.790758  -10643.468192     162.917748     183.090002      99.270941   -6133.566811   -4639.307234    -315.872837  -10062.787320      11.318472 
   35000     295.024782   53045.707861       0.466372  -10133.220329  -10709.235736     151.380866     172.523530      95.330298   -6211.477425   -4638.570014    -278.422991  -10036.659227     124.817671 
   36000     308.816072   53695.961113       0.460725  -10067.570553  -10670.512496     166.311520     197.194472      95.621314   -6184.884666   -4639.398222    -305.356914   -9975.172446     117.990099 
   37000     290.518548   53520.525300       0.462235  -10108.446581  -10675.663878     174.708622     175.163602     119.479788   -6174.925889   -4641.883808    -328.206195  -10249.893970    -181.216893 
   38000     297.401574   53897.265125       0.459004  -10090.800541  -10671.456469     166.182533     194.762034      93.838122   -6189.338838   -4639.921814    -296.978506   -9967.636114     156.690502 
   39000     296.341796   53891.303497       0.459055  -10074.354523  -10652.941308     168.701909     204.909108     107.507270   -6161.607430   -4639.689738    -332.762428  -10162.964123    -112.742120 
   40000     293.214369   53566.648213       0.461837  -10085.022033  -10657.502735     171.118173     195.320147      99.723551   -6205.820519   -4640.462917    -277.381170   -9679.112977     519.587123 
   41000     304.608618   53610.418979       0.461460  -10099.064643  -10693.791824     154.308695     192.300492      89.849903   -6227.455196   -4637.076051    -265.719668   -9808.133587     372.104561 
   42000     304.606410   54038.727202       0.457802  -10060.516526  -10655.239397     170.419418     192.953455     105.272512   -6184.756524   -4642.002200    -297.126059   -9896.995217     207.488176 
   43000     295.722707   53643.274011       0.461177  -10055.448911  -10632.826968     177.915518     193.353750     103.268862   -6208.234060   -4639.063918    -260.067121   -9914.652189     179.970523 
   44000     294.469785   53396.704333       0.463307  -10079.081882  -10654.013696     180.209337     187.196264     108.451463   -6209.129236   -4638.647560    -282.093963   -9901.411182     228.152626 
   45000     303.867426   53285.022700       0.464278  -10071.890902  -10665.170957     172.586334     189.793655     103.179357   -6193.873544   -4638.315349    -298.541411  -10418.339636    -445.818343 
   46000     289.990343   54246.524228       0.456049  -10081.146297  -10647.332311     181.974687     199.485373      92.639735   -6190.241981   -4640.621095    -290.569030  -10082.644202      -1.893374 
   47000     303.665244   53679.974294       0.460862  -10058.766654  -10651.651964     173.380074     198.252982     102.334302   -6153.905438   -4642.140306    -329.573577   -9981.431349      98.784685 
   48000     291.537292   53965.249771       0.458426  -10086.958858  -10656.165184     173.588967     191.746919     100.717901   -6159.060774   -4640.988215    -322.169983  -10167.112620    -101.843621 
   49000     300.349314   54003.221000       0.458103  -10061.744917  -10648.156103     168.661798     180.665740     111.667781   -6155.345088   -4638.123400    -315.682934  -10099.940579     -48.497403 
   50000     294.977661   53906.098191       0.458929  -10086.979174  -10662.902582     171.224552     189.752018     122.190507   -6203.798642   -4639.348175    -302.922842  -10440.237131    -449.343191 
   51000     305.070376   54067.826775       0.457556  -10090.079124  -10685.707856     175.331309     178.446938      96.810645   -6202.669382   -4637.683418    -295.943948  -10366.197922    -350.171802 
   52000     309.156375   53810.495341       0.459744  -10071.110979  -10674.717341     172.493457     179.639261      99.852135   -6173.872562   -4638.128260    -314.701372   -9772.228876     380.852693 
   53000     288.685858   53636.532457       0.461235  -10095.591977  -10659.231076     179.873205     180.296010     108.373685   -6180.425729   -4640.880858    -306.467389  -10086.565136      11.539825 
   54000     292.964229   53538.265342       0.462082  -10110.438245  -10682.430564     172.525378     172.332029      93.805873   -6215.699358   -4640.341810    -265.052676  -10065.874350      57.074609 
   55000     288.458181   53926.093148       0.458758  -10091.548862  -10654.743437     170.860013     183.894283     105.089196   -6177.446516   -4639.856091    -297.284322   -9763.663895     416.914173 
   56000     301.416244   54184.359493       0.456572  -10051.900942  -10640.395236     177.420448     200.112033     103.383651   -6160.776853   -4639.658636    -320.875879  -10190.336405    -175.185245 
   57000     310.308283   53773.395370       0.460061  -10023.318565  -10629.173946     189.949924     205.168701     106.545778   -6232.928199   -4640.599568    -257.310582   -9419.511279     769.936662 
   58000     282.346426   54263.350560       0.455907  -10118.971637  -10670.233434     182.613585     200.735270      87.456788   -6157.388965   -4642.745794    -340.904319  -10469.307684    -442.692669 
   59000     304.894341   53447.436807       0.462867  -10068.575990  -10663.861026     183.457011     200.608755      98.066773   -6200.608770   -4641.883000    -303.501795  -10194.650609    -161.742776 
   60000     289.145303   53283.756651       0.464289  -10091.337560  -10655.873693     167.987879     208.133834      97.614029   -6241.649799   -4638.195274    -249.764363   -9885.259987     265.191747 
   61000     312.967716   53654.046027       0.461085  -10065.068899  -10676.116639     169.587253     194.149944      99.061009   -6197.080813   -4640.313988    -301.520044   -9807.414619     329.275179 
   62000     306.355034   53102.917927       0.465870  -10068.979567  -10667.116505     182.629224     174.957054     114.619711   -6192.185289   -4642.002480    -305.134725  -10203.684620    -173.936054 
   63000     288.033717   53456.531814       0.462788  -10083.711984  -10646.077821     187.099085     191.310061      96.407103   -6192.406448   -4636.775396    -291.712226  -10269.614136    -238.455722 
   64000     306.130642   53226.113539       0.464792  -10060.579632  -10658.278459     175.134074     191.003638     100.711946   -6194.794265   -4637.411290    -292.922563   -9823.221151     305.776503 
   65000     304.806435   53691.402376       0.460764  -10065.515227  -10660.628633     169.930133     180.240778     105.600749   -6154.977096   -4640.624152    -320.799044   -9368.331921     890.361439 
   66000     304.421964   53242.582742       0.464648  -10078.718140  -10673.080892     166.449747     197.294671      93.444557   -6219.525010   -4638.114191    -272.630666   -9944.531200     172.812537 
   67000     309.962398   53693.344285       0.460747  -10043.533977  -10648.714043     182.157248     198.745323     104.439658   -6182.269645   -4639.570081    -312.216545  -10268.555012    -287.360304 
   68000     294.352651   53428.281552       0.463033  -10099.607475  -10674.310592     173.097898     192.676039      99.400393   -6210.984935   -4637.668343    -290.831644  -10205.169212    -135.475085 
   69000     304.417037   53320.155267       0.463972  -10068.177022  -10662.530156     165.139456     185.457247     117.755053   -6217.917968   -4638.405712    -274.558232   -9747.681900     412.148885 
   70000     278.682287   52801.516801       0.468529  -10139.863504  -10683.971323     179.410910     197.717397      94.521400   -6222.374290   -4638.716344    -294.530396  -10309.870009    -220.771624 
   71000     307.029778   53836.350327       0.459523  -10041.570415  -10641.024743     189.661779     202.531862     101.085248   -6185.057704   -4640.827387    -308.418542  -10583.182725    -689.821977 
   72000     291.477167   53548.164955       0.461996  -10114.168455  -10683.257390     185.389791     184.272148      98.067381   -6188.747319   -4639.948894    -322.290497  -10042.529012      91.734292 
   73000     300.059821   53320.727766       0.463967  -10059.886870  -10645.732841     194.386219     187.384847     100.270455   -6203.354984   -4637.701354    -286.718024  -10067.138255      -9.325004 
   74000     281.556772   53498.485938       0.462425  -10124.431488  -10674.151540     194.566870     166.519910      90.289736   -6205.187505   -4637.837216    -282.503334   -9962.852905     207.093474 
   75000     303.843569   53509.004971       0.462334  -10057.256417  -10650.489894     173.787270     202.329855      97.935655   -6185.198366   -4639.234282    -300.110025   -9799.719072     330.017864 
   76000     304.658290   54566.197812       0.453377  -10048.918646  -10643.742808     171.522495     200.033725     108.650153   -6146.745098   -4639.365648    -337.838434  -10089.882425     -51.475483 
   77000     306.086052   53988.164065       0.458231  -10095.215837  -10692.827607     167.211891     192.270899      81.093540   -6186.655781   -4639.542780    -307.205375   -9953.390917     180.126703 
   78000     295.837282   53590.264567       0.461633  -10135.412269  -10713.014025     170.864064     169.152169     100.289054   -6210.169683   -4639.265482    -303.884147   -9888.639542     315.744192 
   79000     294.351872   53827.301373       0.459600  -10066.621446  -10641.323044     176.452596     198.365665     108.797331   -6183.178533   -4640.620347    -301.139756  -10027.047731      50.411351 
   80000     282.813083   53617.878977       0.461396  -10138.891157  -10691.064069     168.906590     180.027130     100.026922   -6220.593640   -4639.047237    -280.383835  -10332.444186    -247.522368 
   81000     283.271453   54645.990778       0.452715  -10087.696087  -10640.763934     183.605092     187.729718      98.012743   -6185.252134   -4637.657043    -287.202310  -10329.017160    -302.803613 
   82000     302.759243   53364.050287       0.463590  -10047.269992  -10638.386398     185.420491     195.433628     104.593929   -6201.659080   -4639.414380    -282.760987  -10223.038022    -225.847461 
   83000     287.762966   53260.813775       0.464489  -10109.710919  -10671.548134     169.569899     194.539535      92.945062   -6204.450056   -4637.637777    -286.514797  -10052.622751      73.495783 
   84000     292.786438   54223.908404       0.456239  -10082.081128  -10653.726323     188.302007     204.136228      85.286604   -6138.022250   -4642.213694    -351.215218  -10395.925990    -396.870041 
   85000     295.223428   54313.251351       0.455488  -10059.587692  -10635.990941     186.930058     187.526769     117.421709   -6183.631616   -4637.147416    -307.090445  -10501.833031    -558.317928 
   86000     292.318341   54061.628510       0.457608  -10081.036944  -10651.768212     180.128565     202.939974      93.113569   -6169.690213   -4640.412944    -317.847163  -10306.357310    -285.782371 
   87000     302.077432   53767.212407       0.460114  -10083.773518  -10673.558734     176.184919     171.572589     103.928381   -6144.776235   -4640.288743    -340.179646   -9830.689695     322.753511 
   88000     292.340071   53066.258326       0.466192  -10109.410138  -10680.183833     163.204374     197.356049      97.431910   -6225.388887   -4639.354519    -273.432760   -9952.663097     202.537291 
   89000     297.651848   52774.344226       0.468770  -10110.205312  -10691.349884     173.188433     195.181477      93.009072   -6259.986067   -4637.041116    -255.701682  -10229.025590    -154.380282 
   90000     294.218636   53508.908939       0.462335  -10109.926120  -10684.367583     157.675031     214.244180      96.127565   -6182.660916   -4638.533143    -331.220300   -9882.134141     291.901579 
   91000     290.708169   53282.181348       0.464303  -10064.760903  -10632.348423     194.029875     198.032553     113.740787   -6227.591496   -4636.764434    -273.795709  -10228.194137    -210.320928 
   92000     314.002380   54235.694791       0.456140  -10079.889256  -10692.957105     172.768384     188.787686     103.801749   -6174.082020   -4639.462728    -344.770177  -10406.195938    -412.538865 
   93000     303.998937   53660.654462       0.461028  -10035.393815  -10628.930636     196.178508     197.839114     108.463556   -6189.805413   -4638.174725    -303.431676  -10329.370778    -375.648315 
   94000     302.151826   52908.373527       0.467583  -10087.182945  -10677.113410     178.911767     192.256089     100.199917   -6242.359947   -4638.893390    -267.227846   -9704.845727     495.502985 
   95000     297.231200   53494.400995       0.462461  -10061.850802  -10642.174087     200.568246     196.033848     104.535547   -6169.779460   -4639.685474    -333.846795  -10516.696857    -583.015652 
   96000     303.272117   53175.583011       0.465233  -10117.192314  -10709.310070     171.384299     179.613574      97.433743   -6197.420097   -4637.946581    -322.375007  -10185.868546     -88.556064 
   97000     300.439187   53345.715600       0.463750  -10094.083871  -10680.670528     178.050639     195.949963     105.798575   -6224.681435   -4641.055800    -294.732470   -9839.611705     327.088182 
   98000     303.007764   53315.762318       0.464010  -10079.545651  -10671.147277     181.490660     194.572318     101.558541   -6208.842147   -4639.309015    -300.617634  -10155.327168     -97.461206 
   99000     287.143833   54457.573778       0.454281  -10072.518584  -10633.146986     192.328030     208.664518     111.336214   -6139.895307   -4642.493972    -363.086469  -10427.381617    -446.813803 
  100000     320.930476   53254.288797       0.464546  -10035.643590  -10662.238067     187.982740     182.535012     115.247795   -6233.816405   -4638.559391    -275.627818   -9806.110638     295.538840 
  101000     284.200913   53509.762409       0.462328  -10097.406122  -10652.288676     181.879312     204.054240     115.261567   -6191.132991   -4639.148694    -323.202110  -10744.591935    -829.316060 
  102000     317.629256   52775.996948       0.468756  -10024.952325  -10645.101398     183.825949     196.380536     105.763203   -6273.324526   -4635.839439    -221.907120   -9293.932248     949.766767 
  103000     300.773169   53967.825087       0.458404  -10108.799348  -10696.038082     167.286340     190.954497      94.772043   -6166.465287   -4639.003995    -343.581679  -10096.261313      15.930107 
  104000     307.990659   52942.904147       0.467278  -10078.582704  -10679.913086     173.505301     182.798019     107.084636   -6218.628428   -4638.420627    -286.251988   -9848.601876     297.857119 
  105000     291.255256   54117.874124       0.457133  -10085.703880  -10654.359550     190.489641     196.520422      94.062388   -6143.870963   -4641.882699    -349.678339   -9903.156839     231.290706 
  106000     303.962552   53975.386418       0.458339  -10077.583783  -10671.049565     183.452350     186.002322      85.916542   -6177.885073   -4639.767331    -308.768376  -10141.587769     -81.308392 
  107000     286.850088   52919.274665       0.467487  -10120.975647  -10681.030532     175.645044     194.405469      96.790508   -6206.370372   -4639.407962    -302.093219  -10248.718307    -165.518364 
  108000     293.917303   53560.683665       0.461888  -10108.869850  -10682.722980     157.424018     196.781431     114.604124   -6186.889692   -4637.865982    -326.776879  -10239.902105    -167.747561 
  109000     297.888725   53275.593091       0.464360  -10017.457063  -10599.064120     201.860601     204.771545     124.503792   -6189.704001   -4641.177627    -299.318429  -10041.752722     -31.269757 
  110000     293.865898   53527.979682       0.462170  -10081.237496  -10654.990263     178.309705     197.393554     105.869367   -6191.397998   -4641.065826    -304.099066  -10465.659586    -492.438039 
Loop time of 119.816 on 128 procs for 100000 steps with 656 atoms

Performance: 72.111 ns/day, 0.333 hours/ns, 834.616 timesteps/s
99.9% CPU use with 128 MPI tasks x 1 OpenMP threads

MPI task timing breakdown:
Section |  min time  |  avg time  |  max time  |%varavg| %total
---------------------------------------------------------------
Pair    | 0.026249   | 10.886     | 48.906     | 573.7 |  9.09
Bond    | 0.012435   | 0.74303    | 3.2371     | 146.7 |  0.62
Kspace  | 35.626     | 82.335     | 102.2      | 259.9 | 68.72
Neigh   | 1.3298     | 1.8217     | 2.34       |  27.2 |  1.52
Comm    | 0.088339   | 8.8192     | 16.908     | 199.7 |  7.36
Output  | 0.11599    | 0.1161     | 0.11717    |   0.0 |  0.10
Modify  | 14.002     | 14.138     | 14.347     |   2.0 | 11.80
Other   |            | 0.956      |            |       |  0.80

Nlocal:    5.125 ave 27 max 0 min
Histogram: 96 0 0 0 0 5 3 12 7 5
Nghost:    848.625 ave 1669 max 0 min
Histogram: 32 16 16 0 0 0 0 15 12 37
Neighs:    484.766 ave 2900 max 0 min
Histogram: 96 0 0 4 9 3 0 1 8 7

Total # of neighbors = 62050
Ave neighs/atom = 94.5884
Ave special neighs/atom = 8.19512
Neighbor list builds = 2397
Dangerous builds = 0
PPPM initialization ...
  using 12-bit tables for long-range coulomb (src/kspace.cpp:332)
  G vector (1/distance) = 0.159073
  grid = 8 18 8
  stencil order = 5
  estimated absolute RMS force accuracy = 0.0216723
  estimated relative force accuracy = 6.52655e-05
  using double precision KISS FFT
  3d grid and FFT values/proc = 392 16
Neighbor list info ...
  update every 1 steps, delay 10 steps, check yes
  max neighbors/atom: 10000, page size: 100000
  master list distance cutoff = 17
  ghost atom cutoff = 17
  binsize = 8.5, bins = 3 11 3
  3 neighbor lists, perpetual/occasional/extra = 3 0 0
  (1) pair buck/coul/long, perpetual, skip from (3)
      attributes: half, newton off
      pair build: skip
      stencil: none
      bin: none
  (2) pair lj/cut/coul/long, perpetual, skip from (3)
      attributes: half, newton off
      pair build: skip
      stencil: none
      bin: none
  (3) neighbor class addition, perpetual
      attributes: half, newton off
      pair build: half/bin/newtoff
      stencil: half/bin/3d/newtoff
      bin: standard
Setting up Verlet run ...
  Unit style    : real
  Current step  : 110000
  Time step     : 1
Per MPI rank memory allocation (min/avg/max) = 19.58 | 19.73 | 20.1 Mbytes
Step Temp Volume Density TotEng PotEng E_bond E_angle E_dihed E_coul E_long E_vdwl Enthalpy Press 
  110000     293.865898   53527.979682       0.462170  -10081.294757  -10655.047524     178.309705     197.393554     105.869367   -6177.996354   -4654.524730    -304.099066  -10465.798745    -492.542949 
  111000     294.155650   53527.979682       0.462170  -10107.222003  -10681.540489     174.676786     175.788211     100.333289   -6158.781448   -4653.690712    -319.866615  -10221.265883    -146.088236 
  112000     289.247200   53527.979682       0.462170  -10112.151553  -10676.886633     167.560118     187.606468      99.963555   -6155.435934   -4653.206086    -323.374753  -10225.788853    -145.567414 
  113000     309.744470   53527.979682       0.462170  -10047.260997  -10652.015572     198.891632     199.258898     104.490970   -6208.285103   -4652.081708    -294.290261  -10296.560720    -319.348628 
  114000     319.389189   53527.979682       0.462170  -10067.074626  -10690.659846     170.543924     190.029972      97.012823   -6204.289631   -4650.880890    -293.076044   -9838.176579     293.214434 
  115000     287.085171   53527.979682       0.462170  -10116.059346  -10676.573214     179.608295     187.095833      84.493789   -6193.807971   -4652.557605    -281.405555  -10051.180598      83.108553 
  116000     299.295889   53527.979682       0.462170  -10066.875623  -10651.230070     181.346157     216.001199      98.751803   -6195.055906   -4654.712820    -297.560503   -9531.662311     685.598984 
  117000     301.623759   53527.979682       0.462170  -10101.379245  -10690.278697     161.706654     195.092539      98.322524   -6170.547305   -4652.213659    -322.639451  -10282.186327    -231.610741 
  118000     282.931063   53527.979682       0.462170  -10131.350990  -10683.754250     179.053920     200.013044      87.942593   -6194.984704   -4651.405324    -304.373780   -9973.377128     202.361782 
  119000     289.897840   53527.979682       0.462170  -10081.779954  -10647.785363     193.985779     194.762401     111.763630   -6171.962315   -4652.865752    -323.469105  -10262.049890    -230.922667 
  120000     283.428846   53527.979682       0.462170  -10110.073898  -10663.449044     176.036694     196.242102     101.162655   -6189.711258   -4651.936727    -295.242509  -10146.709259     -46.929263 
  121000     296.465747   53527.979682       0.462170  -10113.680243  -10692.509034     188.779911     171.305447      92.170540   -6181.740933   -4650.400656    -312.623343  -10664.046166    -705.009216 
  122000     292.967520   53527.979682       0.462170  -10100.606207  -10672.604953     164.522259     204.398712      93.551666   -6176.045688   -4655.172120    -303.859784   -9852.040244     318.408695 
  123000     296.757619   53527.979682       0.462170  -10082.154205  -10661.552856     167.712354     195.946538     105.392022   -6196.853654   -4651.298167    -282.451949   -9801.215392     359.877753 
  124000     298.729961   53527.979682       0.462170  -10119.709234  -10702.958747     162.221113     186.201906      82.289049   -6180.912328   -4651.819605    -300.938881   -9945.725964     222.869556 
  125000     298.098077   53527.979682       0.462170  -10059.473335  -10641.489138     193.797893     196.730332     104.966489   -6182.834970   -4652.624759    -301.524122  -10073.450409     -17.904389 
  126000     297.239366   53527.979682       0.462170  -10100.305476  -10680.644705     170.787075     192.905371      96.300897   -6177.633896   -4651.699961    -311.304192  -10013.846471     110.752488 
  127000     299.763081   53527.979682       0.462170  -10046.887164  -10632.153770     196.945672     185.733024     103.277134   -6175.634922   -4652.684607    -289.790072   -9933.657134     145.045708 
  128000     289.853582   53527.979682       0.462170  -10111.961155  -10677.880152     177.396353     193.076986      87.862294   -6161.336244   -4653.486170    -321.393372  -10259.087211    -188.465930 
  129000     296.030328   53527.979682       0.462170  -10072.669115  -10650.647780     179.441607     199.757816     107.890626   -6115.185131   -4655.526020    -367.026678  -10121.376676     -62.393543 
  130000     303.394267   53527.979682       0.462170  -10113.779054  -10706.135299     156.801096     183.630385     100.423152   -6181.421300   -4650.329137    -315.239495   -9944.271856     217.135785 
  131000     270.728848   53527.979682       0.462170  -10154.763340  -10683.342622     173.412375     191.029181      86.471113   -6168.994668   -4653.731862    -311.528760  -10024.014569     167.486911 
  132000     302.843303   53527.979682       0.462170  -10080.884863  -10672.165389     185.700830     204.094512      87.604380   -6198.610960   -4651.140930    -299.813221  -10518.004904    -559.943203 
  133000     314.631196   53527.979682       0.462170  -10053.678777  -10667.974348     176.064001     193.774578     103.426245   -6192.975380   -4651.349786    -296.914006   -9956.568441     124.396659 
  134000     284.788586   53527.979682       0.462170  -10101.783876  -10657.813820     180.482323     202.244809      91.812233   -6215.770630   -4652.451553    -264.131003  -10058.439095      55.523914 
  135000     292.572078   53527.979682       0.462170  -10095.701381  -10666.928054     178.306012     196.860272      86.695474   -6214.444143   -4651.454103    -262.891566   -9619.449382     610.070562 
  136000     311.838351   53527.979682       0.462170  -10035.968360  -10644.811094     181.943597     214.923272      99.648206   -6157.339272   -4652.585525    -331.401372  -10131.992471    -123.005222 
  137000     301.257269   53527.979682       0.462170  -10076.940570  -10665.124475     186.876736     207.245264      93.076781   -6205.798706   -4651.708443    -294.816106   -9973.263013     132.809155 
  138000     292.373986   53527.979682       0.462170  -10101.363399  -10672.203310     185.891811     200.255168      89.602955   -6189.400776   -4653.329768    -305.222699  -10080.376066      26.884409 
  139000     311.073074   53527.979682       0.462170  -10041.117261  -10648.465845     193.783439     198.445483      90.078191   -6186.307163   -4651.204679    -293.261115  -10274.956954    -299.544598 
  140000     298.329716   53527.979682       0.462170  -10090.048820  -10672.516881     183.141525     185.855528      96.740776   -6149.966350   -4652.195512    -336.092848  -10543.606933    -581.000089 
  141000     277.768571   53527.979682       0.462170  -10136.700892  -10679.024744     177.479678     198.477352      94.464531   -6211.148199   -4651.540914    -286.757192   -9829.420258     393.621170 
  142000     303.499773   53527.979682       0.462170  -10092.694749  -10685.256987     176.668510     192.502174     100.225499   -6170.408044   -4652.376501    -331.868624  -10317.566562    -288.056898 
  143000     288.648058   53527.979682       0.462170  -10080.077867  -10643.643163     178.934299     205.737204     101.388032   -6168.222241   -4653.370491    -308.109965  -10079.609942       0.599404 
  144000     302.561047   53527.979682       0.462170  -10087.664374  -10678.393815     170.061805     190.861723      90.216411   -6203.697111   -4650.792645    -275.043998  -10095.867240     -10.507730 
  145000     298.883590   53527.979682       0.462170  -10087.899932  -10671.449394     184.612494     194.084997      97.743933   -6184.718473   -4655.361960    -307.810385  -10158.503651     -90.442141 
  146000     291.379969   53527.979682       0.462170  -10069.024399  -10637.923562     179.090489     216.679452      97.346763   -6170.714109   -4650.764757    -309.561401  -10139.233388     -89.936499 
  147000     304.587827   53527.979682       0.462170  -10082.934801  -10677.621390     178.847119     186.140980      90.723528   -6212.093303   -4650.534391    -270.705323   -9810.628285     348.819932 
  148000     288.609759   53527.979682       0.462170  -10048.047553  -10611.538072     197.913259     222.724431      99.345980   -6197.284400   -4652.360595    -281.876747   -9771.603416     354.120151 
  149000     287.515446   53527.979682       0.462170  -10115.866696  -10677.220646     175.240524     194.948550      84.696425   -6199.376821   -4651.417566    -281.311758   -9784.124170     424.956430 
  150000     282.900765   53527.979682       0.462170  -10107.201245  -10659.545349     185.367362     194.638498     101.400272   -6194.746603   -4655.022102    -291.182776   -9930.002217     226.988885 
  151000     297.452576   53527.979682       0.462170  -10053.530903  -10634.286408     194.339737     203.297845     103.903203   -6173.531581   -4653.729905    -308.565708  -10471.034705    -534.815141 
  152000     284.001423   53527.979682       0.462170  -10107.805710  -10662.298775     169.532628     200.207470      99.266751   -6153.759325   -4653.136500    -324.409799   -9960.106793     189.199754 
  153000     303.635239   53527.979682       0.462170  -10025.400876  -10618.227603     193.431351     225.053407     106.822725   -6188.237963   -4651.825055    -303.472067   -9650.342731     480.442989 
  154000     297.074581   53527.979682       0.462170  -10104.592427  -10684.609925     197.065375     178.098880      95.761350   -6175.154001   -4652.449046    -327.932483   -9982.958949     155.810379 
  155000     307.378792   53527.979682       0.462170  -10054.413660  -10654.549413     195.445928     189.526166     101.095275   -6193.365809   -4651.804709    -295.446265  -10232.878841    -228.610806 
  156000     296.469899   53527.979682       0.462170  -10106.335448  -10685.172345     181.782952     194.244695      89.283508   -6178.979355   -4651.719743    -319.784402  -10543.624198    -560.159317 
  157000     291.229269   53527.979682       0.462170  -10076.774279  -10645.379211     192.303207     202.748367      97.306498   -6178.827750   -4651.832800    -307.076733  -10027.691190      62.874587 
  158000     310.312614   53527.979682       0.462170  -10060.796393  -10666.660231     199.638268     190.379030      86.118793   -6164.508087   -4651.641793    -326.646443  -10068.686369     -10.106923 
  159000     273.559136   53527.979682       0.462170  -10162.865144  -10696.970367     176.223403     188.697989      90.209689   -6185.742159   -4652.217355    -314.141934  -10119.730483      55.254753 
  160000     293.427029   53527.979682       0.462170  -10077.304178  -10650.200084     186.035714     203.642293     104.832726   -6194.348303   -4653.062503    -297.300011  -10234.177690    -200.952252 
  161000     302.971621   53527.979682       0.462170  -10079.283239  -10670.814299     184.090485     194.367558     107.347136   -6156.463889   -4653.730823    -346.424765  -10084.147575      -6.231130 
  162000     304.304716   53527.979682       0.462170  -10068.908991  -10663.042824     172.661411     211.152452      98.414164   -6153.075071   -4652.208285    -339.987496  -10070.467624      -1.996582 
  163000     296.730292   53527.979682       0.462170  -10079.790772  -10659.136069     188.557504     199.583503      95.567717   -6193.566272   -4652.781311    -296.497211   -9889.198758     244.145070 
  164000     277.801259   53527.979682       0.462170  -10151.814009  -10694.201682     183.666567     192.126491      98.029107   -6190.043282   -4653.223178    -324.757388  -10099.754696      66.687078 
  165000     295.822915   53527.979682       0.462170  -10079.863628  -10657.437334     182.004186     200.155015     102.210774   -6230.671230   -4650.866048    -260.270032   -9546.687089     682.989912 
  166000     294.915334   53527.979682       0.462170  -10083.247741  -10659.049458     192.869771     200.309370     110.469151   -6216.659200   -4652.446919    -293.591630   -9940.659704     182.652806 
  167000     297.675697   53527.979682       0.462170  -10099.637671  -10680.828806     178.122761     180.921969     106.352044   -6208.203353   -4653.262661    -284.759566   -9984.906401     146.968771 
  168000     309.099359   53527.979682       0.462170  -10043.833038  -10647.328079     196.369911     196.523647     114.792394   -6194.110332   -4650.988860    -309.914839  -10205.287508    -206.820380 
  169000     303.702786   53527.979682       0.462170  -10081.861841  -10674.820448     177.772787     205.505474      97.335023   -6195.703561   -4654.091753    -305.638417  -10284.065155    -259.018944 
  170000     303.116853   53527.979682       0.462170  -10085.329647  -10677.144261     185.331768     189.331787      88.005883   -6154.006933   -4653.441012    -332.365755   -9679.360391     520.039586 
  171000     298.669481   53527.979682       0.462170  -10075.544870  -10658.676299     187.342542     202.702721     103.853934   -6192.288647   -4654.925999    -305.360851  -10133.835064     -74.668729 
  172000     297.172872   53527.979682       0.462170  -10100.835947  -10681.045350     184.433731     186.488640      95.915903   -6222.857708   -4654.982689    -270.043228   -9768.632534     425.546819 
  173000     307.755400   53527.979682       0.462170  -10055.450760  -10656.321815     184.757437     201.638194      88.916843   -6208.719631   -4653.558923    -269.355734  -10026.887680      36.588810 
  174000     298.032140   53527.979682       0.462170  -10072.954050  -10654.841115     187.285013     178.907667     109.752507   -6209.739558   -4654.422274    -266.624469   -9827.892391     313.919742 
  175000     300.852608   53527.979682       0.462170  -10095.762197  -10683.156029     174.053624     211.215146     103.322726   -6220.392219   -4654.249073    -297.106232   -9998.386200     124.736966 
  176000     295.394576   53527.979682       0.462170  -10087.202946  -10663.940349     181.477559     198.288154     109.575072   -6166.058412   -4652.992410    -334.230312   -9930.693320     200.486120 
  177000     295.458198   53527.979682       0.462170  -10093.304603  -10670.166224     180.874562     187.111988      97.597142   -6172.374005   -4655.173189    -308.202722   -9542.992745     704.939960 
  178000     293.068354   53527.979682       0.462170  -10112.594834  -10684.790451     170.189725     185.344389      94.335328   -6209.332621   -4650.210884    -275.116388  -10041.010333      91.698505 
  179000     293.298002   53527.979682       0.462170  -10065.402150  -10638.046139     201.594390     186.247808     121.603163   -6205.583931   -4651.608285    -290.299283  -10690.192699    -800.345873 
  180000     295.596670   53527.979682       0.462170  -10110.200868  -10687.332846     182.397693     170.728602     111.219271   -6185.980075   -4653.817028    -311.881309  -10114.329128      -5.288228 
  181000     293.343668   53527.979682       0.462170  -10094.156447  -10666.889595     176.642295     187.951673     102.765079   -6152.959320   -4653.484786    -327.804536   -9928.911507     211.675907 
  182000     302.942024   53527.979682       0.462170  -10064.448186  -10655.921459     178.297624     208.518066      99.979329   -6173.436298   -4650.220618    -319.059562  -10139.262922     -95.836382 
  183000     303.935906   53527.979682       0.462170  -10096.332185  -10689.745944     173.403900     193.724361      94.249594   -6196.253243   -4649.158801    -305.711755  -10510.072550    -529.994242 
  184000     301.263181   53527.979682       0.462170  -10065.085788  -10653.281235     191.246458     182.595604     109.698623   -6180.488628   -4653.107445    -303.225848  -10168.227640    -132.122926 
  185000     297.817335   53527.979682       0.462170  -10108.414863  -10689.882536     173.930730     165.670361     105.443474   -6181.633578   -4653.512389    -299.781134   -9946.831056     206.986058 
  186000     281.408519   53527.979682       0.462170  -10138.818200  -10688.248798     179.043929     199.611122      89.001803   -6202.789222   -4652.921169    -300.195261  -10406.977898    -343.507929 
  187000     298.555195   53527.979682       0.462170  -10107.042350  -10689.950645     168.136315     203.322141     106.106643   -6214.215798   -4651.687379    -301.612566  -10479.777177    -477.466858 
  188000     304.268152   53527.979682       0.462170  -10082.963665  -10677.026111     172.847511     206.287808      88.563447   -6170.576297   -4651.378109    -322.770472   -9945.969965     175.486557 
  189000     285.692576   53527.979682       0.462170  -10113.195966  -10670.990889     171.994368     194.457655      97.018845   -6147.969631   -4652.947775    -333.544351  -10101.339631      15.187760 
  190000     290.737610   53527.979682       0.462170  -10106.663849  -10674.308849     176.862529     216.546146      99.275997   -6209.010334   -4652.427992    -305.555195  -10240.784894    -171.806736 
  191000     298.536597   53527.979682       0.462170  -10089.975464  -10672.847446     177.765316     195.874809      95.616241   -6187.675618   -4650.877920    -303.550274  -10006.307707     107.176948 
  192000     307.910606   53527.979682       0.462170  -10038.054848  -10639.228933     184.496947     212.514705     102.377210   -6179.545233   -4653.115639    -305.956922   -9948.870695     114.243356 
  193000     293.845610   53527.979682       0.462170  -10103.508787  -10677.221943     169.812494     181.445610     107.839807   -6184.856224   -4651.563862    -299.899768  -10239.778040    -174.558553 
  194000     304.524669   53527.979682       0.462170  -10080.563266  -10675.126543     171.810677     203.253207     109.176557   -6190.096651   -4653.943951    -315.326381  -10111.007167     -38.998110 
  195000     312.079463   53527.979682       0.462170  -10065.595920  -10674.909408     172.479870     207.937125     104.537196   -6210.395664   -4652.479369    -296.988567  -10020.548849      57.704518 
  196000     305.920098   53527.979682       0.462170  -10092.375246  -10689.663001     183.593987     186.126413      90.803629   -6216.017648   -4650.260664    -283.908717   -9792.205678     384.512019 
  197000     288.610343   53527.979682       0.462170  -10136.306759  -10699.798418     164.401627     188.972930      80.836212   -6184.366948   -4650.821012    -298.821228   -9693.303598     567.479377 
  198000     306.639562   53527.979682       0.462170  -10078.836716  -10677.529174     182.980987     192.036247      92.890454   -6197.074804   -4653.064733    -295.297324  -10194.856265    -148.619033 
  199000     288.206056   53527.979682       0.462170  -10128.104277  -10690.806594     190.074611     196.919044      93.314126   -6212.256150   -4653.609729    -305.248496  -10101.662762      33.871123 
  200000     303.765491   53527.979682       0.462170  -10094.959159  -10688.040193     187.032392     184.419150      95.308114   -6175.802473   -4652.161126    -326.836251  -10248.790483    -197.055261 
  201000     304.982896   53527.979682       0.462170  -10026.312155  -10621.770089     198.222644     225.881942     102.812055   -6184.874930   -4652.568978    -311.242821  -10244.155068    -279.052999 
  202000     294.967281   53527.979682       0.462170  -10105.449276  -10681.352417     184.249158     186.806677     102.805129   -6192.027795   -4652.546175    -310.639411   -9991.198240     146.353598 
  203000     290.353819   53527.979682       0.462170  -10108.653140  -10675.548817     171.267638     215.308823      94.978796   -6162.028432   -4654.085683    -340.989959  -10113.530380      -6.247661 
  204000     295.836025   53527.979682       0.462170  -10077.458501  -10655.057804     191.713442     213.970228      96.648812   -6176.692954   -4654.668920    -326.028411  -10167.953193    -115.922133 
  205000     288.801643   53527.979682       0.462170  -10153.942705  -10717.807866     169.159243     177.656677      96.305790   -6209.829318   -4651.958702    -299.141555  -10093.036053      78.020367 
  206000     308.542508   53527.979682       0.462170  -10061.822973  -10664.230801     196.033369     182.146787     108.102194   -6177.560440   -4654.101292    -318.851419  -10166.974273    -134.696994 
  207000     293.454931   53527.979682       0.462170  -10111.092142  -10684.042523     164.082578     197.613904     103.209943   -6153.452399   -4654.246050    -341.250500  -10260.500169    -191.389096 
  208000     303.579125   53527.979682       0.462170  -10081.538693  -10674.255862     189.866099     176.718010      97.160159   -6196.822140   -4653.549491    -287.628498  -10351.373841    -345.654152 
  209000     303.187519   53527.979682       0.462170  -10072.966486  -10664.919070     173.269177     169.515331     103.656576   -6151.436648   -4649.850681    -310.072825  -10061.194350      15.079903 
  210000     291.282631   53527.979682       0.462170  -10114.301538  -10683.010655     163.217223     194.419581     104.627980   -6156.897295   -4655.182038    -333.196106  -10016.072073     125.830243 
Loop time of 120.622 on 128 procs for 100000 steps with 656 atoms

Performance: 71.628 ns/day, 0.335 hours/ns, 829.034 timesteps/s
99.9% CPU use with 128 MPI tasks x 1 OpenMP threads

MPI task timing breakdown:
Section |  min time  |  avg time  |  max time  |%varavg| %total
---------------------------------------------------------------
Pair    | 0.025618   | 10.954     | 49.499     | 575.7 |  9.08
Bond    | 0.012053   | 0.74312    | 3.262      | 146.9 |  0.62
Kspace  | 36.805     | 84.465     | 104.65     | 259.5 | 70.02
Neigh   | 1.2836     | 1.7055     | 2.1539     |  23.9 |  1.41
Comm    | 0.091664   | 8.9985     | 16.795     | 200.8 |  7.46
Output  | 0.059999   | 0.060096   | 0.061259   |   0.0 |  0.05
Modify  | 12.363     | 12.543     | 12.655     |   2.0 | 10.40
Other   |            | 1.154      |            |       |  0.96

Nlocal:    5.125 ave 24 max 0 min
Histogram: 96 0 0 0 0 0 3 10 6 13
Nghost:    846.758 ave 1664 max 0 min
Histogram: 32 16 16 0 0 0 0 16 4 44
Neighs:    484.297 ave 2827 max 0 min
Histogram: 96 0 0 4 8 4 0 0 4 12

Total # of neighbors = 61990
Ave neighs/atom = 94.497
Ave special neighs/atom = 8.19512
Neighbor list builds = 2028
Dangerous builds = 0
System init for write_restart ...
PPPM initialization ...
  using 12-bit tables for long-range coulomb (src/kspace.cpp:332)
  G vector (1/distance) = 0.159073
  grid = 8 18 8
  stencil order = 5
  estimated absolute RMS force accuracy = 0.0216723
  estimated relative force accuracy = 6.52655e-05
  using double precision KISS FFT
  3d grid and FFT values/proc = 392 16
Neighbor list info ...
  update every 1 steps, delay 10 steps, check yes
  max neighbors/atom: 10000, page size: 100000
  master list distance cutoff = 17
  ghost atom cutoff = 17
  binsize = 8.5, bins = 3 11 3
  3 neighbor lists, perpetual/occasional/extra = 3 0 0
  (1) pair buck/coul/long, perpetual, skip from (3)
      attributes: half, newton off
      pair build: skip
      stencil: none
      bin: none
  (2) pair lj/cut/coul/long, perpetual, skip from (3)
      attributes: half, newton off
      pair build: skip
      stencil: none
      bin: none
  (3) neighbor class addition, perpetual
      attributes: half, newton off
      pair build: half/bin/newtoff
      stencil: half/bin/3d/newtoff
      bin: standard
System init for write_data ...
PPPM initialization ...
  using 12-bit tables for long-range coulomb (src/kspace.cpp:332)
  G vector (1/distance) = 0.159073
  grid = 8 18 8
  stencil order = 5
  estimated absolute RMS force accuracy = 0.0216723
  estimated relative force accuracy = 6.52655e-05
  using double precision KISS FFT
  3d grid and FFT values/proc = 392 16
Neighbor list info ...
  update every 1 steps, delay 10 steps, check yes
  max neighbors/atom: 10000, page size: 100000
  master list distance cutoff = 17
  ghost atom cutoff = 17
  binsize = 8.5, bins = 3 11 3
  3 neighbor lists, perpetual/occasional/extra = 3 0 0
  (1) pair buck/coul/long, perpetual, skip from (3)
      attributes: half, newton off
      pair build: skip
      stencil: none
      bin: none
  (2) pair lj/cut/coul/long, perpetual, skip from (3)
      attributes: half, newton off
      pair build: skip
      stencil: none
      bin: none
  (3) neighbor class addition, perpetual
      attributes: half, newton off
      pair build: half/bin/newtoff
      stencil: half/bin/3d/newtoff
      bin: standard
Total wall time: 0:04:11
